version 3
run General-9-20240513-00:17:10-20028
attr configname General
attr datetime 20240513-00:17:10
attr datetimef 20240513-001710
attr experiment General
attr inifile omnetpp.ini
attr iterationvars ""
attr iterationvarsd ""
attr iterationvarsf ""
attr measurement ""
attr network AirportControl
attr processid 20028
attr repetition 9
attr replication #9
attr resultdir results
attr runnumber 9
attr seedset 9
config network AirportControl
config repeat 10
config simtime-resolution s
config sim-time-limit 1440min
config **.PrioT_PCT.jobType 0
config **.PrioT_PCF.jobType 1
config **.PrioF_PCT.jobType 2
config **.PrioF_PCF.jobType 3
config **.PrioT_PCT.probArrival 0.04
config **.PrioT_PCF.probArrival 0.01
config **.PrioF_PCT.probArrival 0.01
config **.PrioF_PCF.probArrival 0.94
config **.PrioT_PCT.interarrivalRateRush 0.4min
config **.PrioT_PCF.interarrivalRateRush 0.4min
config **.PrioF_PCT.interarrivalRateRush 0.4min
config **.PrioF_PCF.interarrivalRateRush 0.4min
config **.PrioF_PCF.interarrivalRateNormal 1min
config **.PrioT_PCT.interarrivalRateNormal 1min
config **.PrioF_PCT.interarrivalRateNormal 1min
config **.PrioT_PCF.interarrivalRateNormal 1min
config **.PrioF_PCF.numberOfPeaks 4
config **.PrioF_PCT.numberOfPeaks 4
config **.PrioT_PCF.numberOfPeaks 4
config **.PrioT_PCT.numberOfPeaks 4
config **.PrioF_PCF.durationOfPeaks 150min
config **.PrioF_PCT.durationOfPeaks 150min
config **.PrioT_PCF.durationOfPeaks 150min
config **.PrioT_PCT.durationOfPeaks 150min
config **.PrioT_Server.serviceTime exponential(3min)
config **.PrioF_Server3.serviceTime exponential(5min)
config **.PrioF_Server2.serviceTime exponential(5min)
config **.PrioF_Server1.serviceTime exponential(5min)
config **.PrioF_Server0.serviceTime exponential(5min)
config **.NoPC_Server0.serviceTime exponential(3min)
config **.NoPC_Server3.serviceTime exponential(3min)
config **.NoPC_Server2.serviceTime exponential(3min)
config **.NoPC_Server1.serviceTime exponential(3min)
config **.PC_Server0.serviceTime exponential(1min)
config **.PC_Server1.serviceTime exponential(1min)

vector 0 AirportControl.PrioF_PQ queueLength:vector ETV
attr interpolationmode sample-hold
attr recordingmode vector
attr title "queue length"
vector 1 AirportControl.PrioT_PQ queueLength:vector ETV
attr interpolationmode sample-hold
attr recordingmode vector
attr title "queue length"
vector 2 AirportControl.NoPC_PQ queueLength:vector ETV
attr interpolationmode sample-hold
attr recordingmode vector
attr title "queue length"
vector 3 AirportControl.PC_PQ queueLength:vector ETV
attr interpolationmode sample-hold
attr recordingmode vector
attr title "queue length"
vector 4 AirportControl.sink lifeTime:vector ETV
attr interpolationmode none
attr recordingmode vector
attr title "lifetime of arrived jobs"
attr unit s
0	0	0	0
0	104	704	1
0	105	717	0
0	111	768	1
0	112	780	0
0	159	1152	1
0	162	1208	0
0	168	1216	1
0	172	1280	2
0	173	1330	1
0	179	1344	2
0	185	1408	3
0	187	1472	4
0	188	1477	3
0	199	1536	4
0	200	1572	3
0	206	1600	4
0	207	1622	3
0	215	1664	4
0	221	1728	5
0	223	1792	6
0	228	1833	5
0	236	1856	6
0	237	1878	5
0	245	1920	6
0	246	1928	5
0	254	1984	4
0	255	1984	5
0	263	2048	6
0	264	2056	5
0	270	2112	6
0	276	2176	7
0	279	2205	6
0	285	2240	7
0	289	2304	8
0	290	2321	7
0	296	2368	8
0	298	2432	9
0	300	2496	10
0	301	2520	9
0	307	2560	10
0	309	2624	11
0	311	2688	12
0	313	2752	13
0	317	2816	14
0	319	2880	15
0	320	2913	14
0	325	2929	13
0	331	2944	14
0	332	2975	13
0	341	3008	14
0	342	3013	13
0	346	3027	12
0	351	3072	13
0	355	3107	12
0	366	3136	13
0	368	3200	14
0	371	3235	13
0	383	3264	14
0	384	3287	13
0	390	3328	14
0	392	3392	15
0	401	3453	14
0	407	3456	15
0	408	3458	14
0	418	3520	15
0	419	3581	14
0	425	3584	15
0	426	3595	14
0	431	3630	13
0	436	3648	12
0	440	3648	13
0	442	3657	12
0	447	3712	13
0	451	3759	12
0	456	3776	13
0	458	3840	14
0	462	3873	13
0	470	3904	14
0	472	3968	15
0	473	3979	14
0	477	3992	13
0	481	4013	12
0	486	4032	13
0	490	4069	12
0	501	4096	13
0	503	4160	14
0	504	4167	13
0	514	4179	12
0	521	4194	11
0	529	4224	12
0	533	4253	11
0	537	4261	10
0	547	4283	9
0	552	4288	10
0	553	4297	9
0	557	4298	8
0	565	4352	9
0	570	4416	10
0	581	4480	11
0	582	4482	10
0	591	4544	11
0	592	4575	10
0	600	4608	11
0	601	4657	10
0	609	4672	11
0	610	4679	10
0	618	4736	11
0	623	4769	10
0	629	4800	11
0	633	4864	12
0	634	4909	11
0	639	4910	10
0	645	4928	11
0	650	4984	10
0	656	4992	11
0	666	5056	12
0	668	5120	13
0	669	5145	12
0	674	5173	11
0	682	5184	12
0	683	5217	11
0	688	5246	10
0	694	5248	11
0	695	5258	10
0	702	5296	9
0	708	5312	10
0	710	5376	11
0	713	5380	10
0	722	5419	9
0	728	5440	10
0	732	5504	11
0	735	5559	10
0	741	5568	11
0	742	5585	10
0	747	5588	9
0	759	5632	10
0	760	5638	9
0	767	5696	8
0	771	5696	9
0	777	5760	10
0	778	5772	9
0	783	5817	8
0	789	5824	9
0	790	5829	8
0	798	5888	9
0	800	5952	10
0	801	5957	9
0	812	6000	10
0	816	6016	11
0	817	6018	10
0	830	6032	9
0	843	6080	10
0	844	6103	9
0	848	6131	8
0	853	6144	9
0	857	6179	8
0	862	6208	9
0	872	6272	10
0	875	6305	9
0	881	6336	10
0	887	6400	11
0	889	6464	12
0	890	6513	11
0	896	6528	12
0	897	6539	11
0	905	6592	12
0	909	6656	13
0	910	6681	12
0	917	6698	11
0	925	6720	12
0	927	6784	13
0	928	6789	12
0	933	6821	11
0	939	6848	12
0	943	6912	13
0	947	6976	14
0	950	7009	13
0	956	7040	14
0	958	7104	15
0	959	7107	14
0	964	7150	13
0	972	7168	14
0	973	7186	13
0	978	7228	12
0	984	7232	13
0	986	7296	14
0	990	7360	15
0	994	7424	16
0	995	7463	15
0	1000	7465	14
0	1006	7488	15
0	1013	7552	16
0	1014	7554	15
0	1019	7568	14
0	1030	7616	15
0	1032	7680	16
0	1036	7704	15
0	1045	7722	14
0	1052	7739	13
0	1058	7744	14
0	1060	7808	15
0	1066	7872	16
0	1068	7936	17
0	1069	7942	16
0	1075	8000	17
0	1076	8028	16
0	1083	8050	15
0	1089	8064	16
0	1095	8128	17
0	1099	8192	18
0	1102	8249	17
0	1108	8256	18
0	1109	8261	17
0	1116	8284	16
0	1122	8320	17
0	1124	8384	18
0	1125	8439	17
0	1131	8448	18
0	1133	8512	19
0	1137	8576	20
0	1141	8640	21
0	1145	8704	22
0	1146	8711	21
0	1151	8752	20
0	1156	8763	19
0	1162	8768	20
0	1165	8827	19
0	1171	8832	20
0	1172	8867	19
0	1178	8896	20
0	1179	8928	19
0	1184	8960	20
0	1196	9024	21
0	1198	9088	22
0	1204	9152	23
0	1205	9168	22
0	1210	9174	21
0	1215	9200	20
0	1220	9205	19
0	1226	9216	20
0	1231	9261	19
0	1237	9280	20
0	1238	9304	19
0	1244	9344	20
0	1245	9352	19
0	1249	9374	18
0	1254	9408	19
0	1255	9411	18
0	1266	9472	19
0	1270	9511	18
0	1275	9536	19
0	1277	9600	20
0	1282	9621	19
0	1290	9664	20
0	1300	9714	19
0	1306	9728	20
0	1307	9752	19
0	1313	9792	20
0	1316	9836	19
0	1322	9856	20
0	1324	9920	21
0	1328	9984	22
0	1334	10048	23
0	1335	10086	22
0	1341	10112	23
0	1345	10176	24
0	1346	10201	23
0	1352	10240	24
0	1353	10243	23
0	1360	10302	22
0	1366	10304	23
0	1367	10316	22
0	1372	10341	21
0	1376	10345	20
0	1387	10368	21
0	1393	10432	22
0	1395	10496	23
0	1399	10528	22
0	1407	10560	23
0	1413	10624	24
0	1418	10667	23
0	1424	10688	24
0	1428	10752	25
0	1429	10767	24
0	1437	10816	25
0	1438	10829	24
0	1444	10880	25
0	1445	10888	24
0	1452	10936	23
0	1458	10944	24
0	1461	10953	23
0	1469	11008	24
0	1475	11072	25
0	1476	11123	24
0	1482	11136	25
0	1483	11148	24
0	1489	11200	25
0	1493	11264	26
0	1494	11289	25
0	1499	11317	24
0	1505	11328	25
0	1506	11360	24
0	1511	11368	23
0	1516	11392	24
0	1520	11419	23
0	1528	11456	24
0	1532	11520	25
0	1536	11584	26
0	1539	11613	25
0	1545	11648	26
0	1549	11712	27
0	1551	11776	28
0	1553	11840	29
0	1554	11865	28
0	1560	11904	29
0	1564	11968	30
0	1567	11997	29
0	1576	12000	30
0	1579	12003	29
0	1589	12011	28
0	1597	12032	29
0	1598	12062	28
0	1603	12068	27
0	1611	12096	28
0	1615	12160	29
0	1623	12224	30
0	1624	12246	29
0	1630	12288	30
0	1632	12352	31
0	1633	12354	30
0	1638	12402	29
0	1643	12405	28
0	1649	12416	29
0	1651	12480	30
0	1656	12520	29
0	1662	12544	30
0	1671	12582	29
0	1677	12608	30
0	1679	12672	31
0	1683	12736	32
0	1687	12800	33
0	1688	12851	32
0	1689	12851	31
0	1698	12857	30
0	1706	12864	31
0	1707	12868	30
0	1716	12924	29
0	1722	12928	30
0	1723	12978	29
0	1729	12992	30
0	1733	13056	31
0	1736	13116	30
0	1742	13120	31
0	1743	13153	30
0	1750	13160	29
0	1756	13184	30
0	1762	13248	31
0	1763	13250	30
0	1769	13312	31
0	1773	13376	32
0	1777	13440	33
0	1784	13504	34
0	1786	13568	35
0	1787	13573	34
0	1792	13606	33
0	1798	13632	34
0	1799	13648	33
0	1805	13696	34
0	1811	13760	35
0	1814	13775	34
0	1823	13821	33
0	1829	13824	34
0	1832	13860	33
0	1840	13888	34
0	1841	13907	33
0	1846	13917	32
0	1852	13952	33
0	1855	13978	32
0	1861	14016	33
0	1865	14080	34
0	1869	14144	35
0	1870	14150	34
0	1877	14163	33
0	1885	14208	34
0	1888	14261	33
0	1894	14272	34
0	1896	14336	35
0	1900	14400	36
0	1901	14409	35
0	1907	14464	36
0	1909	14528	37
0	1910	14547	36
0	1917	14584	35
0	1923	14592	36
0	1926	14603	35
0	1934	14656	36
0	1935	14686	35
0	1941	14720	36
0	1942	14721	35
0	1951	14747	34
0	1961	14784	35
0	1964	14846	34
0	1970	14848	35
0	1971	14907	34
0	1977	14912	35
0	1979	14976	36
0	1983	15019	35
0	1991	15040	36
0	1995	15104	37
0	1997	15168	38
0	2004	15227	37
0	2010	15232	38
0	2011	15235	37
0	2016	15237	36
0	2024	15296	37
0	2029	15354	36
0	2035	15360	37
0	2036	15384	36
0	2044	15424	37
0	2045	15448	36
0	2051	15488	37
0	2055	15552	38
0	2056	15560	37
0	2061	15568	36
0	2066	15593	35
0	2074	15616	36
0	2077	15626	35
0	2084	15655	34
0	2091	15661	33
0	2099	15680	34
0	2100	15700	33
0	2107	15726	32
0	2112	15739	31
0	2117	15744	32
0	2126	15808	33
0	2127	15841	32
0	2133	15872	33
0	2134	15878	32
0	2140	15936	33
0	2146	16000	34
0	2148	16064	35
0	2151	16077	34
0	2159	16128	35
0	2161	16192	36
0	2162	16234	35
0	2168	16256	36
0	2169	16261	35
0	2174	16295	34
0	2182	16320	35
0	2187	16380	34
0	2192	16381	33
0	2198	16384	34
0	2204	16448	35
0	2205	16476	34
0	2210	16487	33
0	2223	16512	34
0	2224	16554	33
0	2230	16569	32
0	2236	16576	33
0	2241	16640	34
0	2247	16704	35
0	2248	16711	34
0	2256	16768	35
0	2257	16813	34
0	2265	16832	35
0	2266	16847	34
0	2271	16883	33
0	2277	16896	34
0	2281	16960	35
0	2282	16969	34
0	2287	17011	33
0	2292	17024	34
0	2300	17068	33
0	2308	17088	34
0	2310	17152	35
0	2311	17173	34
0	2319	17216	35
0	2320	17250	34
0	2326	17280	35
0	2328	17344	36
0	2329	17371	35
0	2334	17374	34
0	2346	17408	35
0	2347	17410	34
0	2355	17472	35
0	2356	17496	34
0	2364	17536	35
0	2367	17556	34
0	2375	17600	35
0	2376	17646	34
0	2381	17649	33
0	2386	17650	32
0	2392	17664	33
0	2393	17665	32
0	2401	17728	33
0	2406	17782	32
0	2412	17792	33
0	2420	17856	34
0	2421	17887	33
0	2426	17906	32
0	2432	17920	33
0	2433	17955	32
0	2438	17982	31
0	2444	17984	32
0	2445	17991	31
0	2453	18000	32
0	2462	18048	33
0	2463	18074	32
0	2469	18112	33
0	2471	18176	34
0	2479	18240	35
0	2481	18304	36
0	2483	18368	37
0	2484	18372	36
0	2489	18400	35
0	2494	18403	34
0	2503	18414	33
0	2508	18432	34
0	2513	18496	35
0	2514	18513	34
0	2521	18521	33
0	2529	18560	34
0	2530	18562	33
0	2537	18595	32
0	2544	18618	31
0	2549	18624	32
0	2557	18688	33
0	2559	18752	34
0	2563	18816	35
0	2569	18880	36
0	2570	18892	35
0	2577	18917	34
0	2585	18944	35
0	2591	19008	36
0	2595	19072	37
0	2599	19136	38
0	2600	19192	37
0	2608	19200	38
0	2610	19264	39
0	2611	19323	38
0	2617	19328	39
0	2620	19359	38
0	2625	19375	37
0	2631	19392	38
0	2632	19398	37
0	2637	19434	36
0	2645	19456	37
0	2646	19468	36
0	2659	19520	37
0	2660	19534	36
0	2665	19561	35
0	2671	19584	36
0	2676	19609	35
0	2686	19648	36
0	2689	19684	35
0	2696	19703	34
0	2702	19712	35
0	2703	19772	34
0	2709	19776	35
0	2717	19840	36
0	2718	19876	35
0	2724	19904	36
0	2725	19912	35
0	2731	19968	36
0	2732	19981	35
0	2736	19990	34
0	2740	19994	33
0	2748	20032	34
0	2753	20096	35
0	2759	20159	34
0	2765	20160	35
0	2767	20224	36
0	2768	20229	35
0	2776	20288	36
0	2782	20352	37
0	2785	20396	36
0	2790	20401	35
0	2795	20405	34
0	2803	20416	35
0	2804	20472	34
0	2812	20480	35
0	2814	20544	36
0	2818	20608	37
0	2824	20672	38
0	2826	20736	39
0	2827	20749	38
0	2832	20752	37
0	2840	20800	38
0	2843	20819	37
0	2849	20864	38
0	2850	20865	37
0	2857	20880	36
0	2863	20928	37
0	2864	20968	36
0	2869	20972	35
0	2875	20992	36
0	2882	21056	37
0	2890	21120	38
0	2891	21128	37
0	2901	21184	38
0	2905	21248	39
0	2906	21272	38
0	2912	21312	39
0	2914	21376	40
0	2915	21390	39
0	2925	21440	40
0	2926	21451	39
0	2936	21504	40
0	2937	21526	39
0	2943	21568	40
0	2944	21570	39
0	2950	21632	40
0	2952	21696	41
0	2958	21760	42
0	2959	21761	41
0	2967	21824	42
0	2969	21888	43
0	2970	21948	42
0	2976	21952	43
0	2977	21968	42
0	2987	22016	43
0	2988	22047	42
0	2996	22080	43
0	2997	22137	42
0	3003	22144	43
0	3007	22208	44
0	3008	22243	43
0	3014	22272	44
0	3016	22336	45
0	3018	22400	46
0	3019	22418	45
0	3027	22464	46
0	3031	22511	45
0	3037	22528	46
0	3039	22592	47
0	3042	22622	46
0	3047	22652	45
0	3053	22656	46
0	3056	22704	45
0	3062	22720	46
0	3063	22725	45
0	3072	22767	44
0	3077	22780	43
0	3083	22784	44
0	3089	22848	45
0	3094	22911	44
0	3100	22912	45
0	3103	22968	44
0	3109	22976	45
0	3111	23005	44
0	3117	23012	43
0	3123	23040	44
0	3126	23062	43
0	3130	23067	42
0	3145	23104	43
0	3146	23124	42
0	3154	23168	43
0	3155	23183	42
0	3163	23232	43
0	3167	23296	44
0	3168	23342	43
0	3174	23360	44
0	3175	23361	43
0	3182	23374	42
0	3190	23424	43
0	3191	23438	42
0	3196	23475	41
0	3202	23488	42
0	3207	23511	41
0	3213	23552	42
0	3217	23616	43
0	3219	23680	44
0	3220	23698	43
0	3228	23744	44
0	3229	23772	43
0	3239	23808	44
0	3243	23872	45
0	3244	23906	44
0	3250	23936	45
0	3256	24000	46
0	3258	24000	47
0	3260	24040	46
0	3266	24064	47
0	3267	24087	46
0	3275	24128	47
0	3279	24192	48
0	3281	24256	49
0	3282	24297	48
0	3287	24310	47
0	3293	24320	48
0	3294	24348	47
0	3310	24382	46
0	3315	24384	47
0	3322	24448	48
0	3323	24449	47
0	3324	24449	46
0	3332	24455	45
0	3345	24512	46
0	3346	24562	45
0	3351	24576	46
0	3356	24640	47
0	3359	24659	46
0	3364	24695	45
0	3369	24704	46
0	3370	24735	45
0	3375	24768	46
0	3376	24779	45
0	3383	24796	44
0	3387	24815	43
0	3395	24832	44
0	3397	24896	45
0	3402	24960	46
0	3410	25024	47
0	3413	25043	46
0	3421	25088	47
0	3423	25152	48
0	3425	25216	49
0	3431	25280	50
0	3432	25290	49
0	3439	25341	48
0	3445	25344	49
0	3448	25403	48
0	3454	25408	49
0	3457	25447	48
0	3463	25472	49
0	3470	25536	50
0	3476	25600	51
0	3478	25664	52
0	3479	25668	51
0	3489	25728	52
0	3490	25737	51
0	3496	25792	52
0	3499	25839	51
0	3505	25856	52
0	3511	25920	53
0	3513	25984	54
0	3515	26048	55
0	3516	26097	54
0	3521	26106	53
0	3527	26112	54
0	3533	26176	55
0	3535	26240	56
0	3537	26304	57
0	3538	26324	56
0	3543	26328	55
0	3548	26334	54
0	3556	26368	55
0	3560	26432	56
0	3561	26489	55
0	3567	26496	56
0	3568	26552	55
0	3574	26560	56
0	3577	26596	55
0	3582	26624	54
0	3586	26624	55
0	3589	26664	54
0	3594	26688	55
0	3595	26740	54
0	3600	26752	55
0	3601	26771	54
0	3606	26816	55
0	3610	26867	54
0	3615	26880	55
0	3616	26883	54
0	3627	26944	55
0	3638	27008	56
0	3642	27072	57
0	3648	27136	58
0	3650	27200	59
0	3653	27228	58
0	3659	27264	59
0	3661	27328	60
0	3669	27392	61
0	3670	27432	60
0	3675	27441	59
0	3681	27456	60
0	3685	27520	61
0	3689	27584	62
0	3690	27607	61
0	3696	27648	62
0	3702	27712	63
0	3703	27753	62
0	3708	27757	61
0	3713	27761	60
0	3718	27768	59
0	3724	27776	60
0	3728	27840	61
0	3732	27904	62
0	3733	27943	61
0	3740	27954	60
0	3746	27968	61
0	3747	27986	60
0	3755	28032	61
0	3757	28096	62
0	3761	28160	63
0	3763	28224	64
0	3764	28287	63
0	3770	28288	64
0	3771	28320	63
0	3779	28352	64
0	3780	28384	63
0	3786	28411	62
0	3793	28416	63
0	3796	28445	62
0	3803	28478	61
0	3809	28480	62
0	3822	28544	63
0	3823	28577	62
0	3829	28608	63
0	3831	28672	64
0	3835	28736	65
0	3839	28800	66
0	3840	28856	65
0	3848	28864	66
0	3850	28928	67
0	3851	28958	66
0	3856	28962	65
0	3864	28992	66
0	3868	29056	67
0	3869	29114	66
0	3877	29120	67
0	3879	29184	68
0	3880	29198	67
0	3890	29248	68
0	3891	29252	67
0	3896	29255	66
0	3902	29312	67
0	3903	29319	66
0	3911	29376	67
0	3912	29402	66
0	3919	29428	65
0	3924	29438	64
0	3932	29440	65
0	3933	29466	64
0	3937	29498	63
0	3942	29504	64
0	3946	29540	63
0	3954	29568	64
0	3959	29632	65
0	3960	29659	64
0	3968	29696	65
0	3974	29760	66
0	3975	29780	65
0	3980	29805	64
0	3986	29824	65
0	3987	29872	64
0	3992	29888	65
0	4001	29952	66
0	4008	30000	67
0	4012	30016	68
0	4013	30039	67
0	4019	30080	68
0	4020	30101	67
0	4028	30144	68
0	4029	30161	67
0	4044	30208	68
0	4052	30272	69
0	4053	30287	68
0	4061	30336	69
0	4065	30400	70
0	4066	30410	69
0	4071	30426	68
0	4076	30463	67
0	4082	30464	68
0	4086	30528	69
0	4089	30582	68
0	4095	30592	69
0	4099	30656	70
0	4103	30720	71
0	4104	30730	70
0	4109	30774	69
0	4115	30784	70
0	4116	30815	69
0	4122	30848	70
0	4128	30912	71
0	4129	30938	70
0	4137	30976	71
0	4139	31040	72
0	4141	31104	73
0	4145	31168	74
0	4146	31231	73
0	4152	31232	74
0	4153	31233	73
0	4163	31296	74
0	4165	31360	75
0	4166	31363	74
0	4171	31405	73
0	4177	31424	74
0	4178	31475	73
0	4188	31488	74
0	4192	31519	73
0	4198	31552	74
0	4199	31561	73
0	4204	31615	72
0	4209	31616	73
0	4210	31626	72
0	4214	31644	71
0	4228	31675	70
0	4233	31680	71
0	4242	31721	70
0	4250	31744	71
0	4252	31808	72
0	4258	31872	73
0	4263	31933	72
0	4269	31936	73
0	4271	32000	74
0	4275	32064	75
0	4276	32076	74
0	4282	32128	75
0	4283	32179	74
0	4289	32192	75
0	4290	32215	74
0	4298	32256	75
0	4302	32320	76
0	4304	32384	77
0	4305	32414	76
0	4311	32448	77
0	4315	32512	78
0	4317	32576	79
0	4318	32610	78
0	4323	32617	77
0	4328	32637	76
0	4333	32639	75
0	4338	32640	76
0	4340	32704	77
0	4341	32731	76
0	4348	32767	75
0	4353	32768	76
0	4354	32797	75
0	4358	32809	74
0	4363	32832	75
0	4368	32896	76
0	4373	32960	77
0	4378	33024	78
0	4382	33047	77
0	4391	33088	78
0	4398	33152	79
0	4404	33191	78
0	4412	33216	79
0	4413	33252	78
0	4419	33280	79
0	4420	33305	78
0	4428	33344	79
0	4432	33408	80
0	4433	33423	79
0	4441	33472	80
0	4445	33536	81
0	4447	33600	82
0	4448	33619	81
0	4456	33664	82
0	4457	33687	81
0	4469	33728	82
0	4470	33744	81
0	4476	33792	82
0	4479	33824	81
0	4485	33856	82
0	4486	33867	81
0	4491	33872	80
0	4503	33920	81
0	4504	33939	80
0	4510	33984	81
0	4511	34040	80
0	4517	34048	81
0	4518	34088	80
0	4526	34112	81
0	4530	34176	82
0	4531	34238	81
0	4537	34240	82
0	4541	34304	83
0	4542	34311	82
0	4547	34324	81
0	4554	34367	80
0	4560	34368	81
0	4563	34426	80
0	4569	34432	81
0	4575	34496	82
0	4579	34512	81
0	4589	34560	82
0	4591	34624	83
0	4592	34659	82
0	4600	34688	83
0	4603	34711	82
0	4611	34752	83
0	4612	34754	82
0	4617	34783	81
0	4623	34816	82
0	4624	34843	81
0	4628	34867	80
0	4632	34872	79
0	4637	34880	80
0	4645	34944	81
0	4646	34952	80
0	4650	34977	79
0	4655	35008	80
0	4656	35029	79
0	4661	35072	80
0	4662	35114	79
0	4667	35136	80
0	4672	35200	81
0	4679	35238	80
0	4687	35264	81
0	4695	35328	82
0	4696	35357	81
0	4700	35361	80
0	4705	35392	81
0	4706	35442	80
0	4711	35456	81
0	4718	35483	80
0	4726	35520	81
0	4730	35559	80
0	4735	35584	81
0	4739	35611	80
0	4744	35648	81
0	4753	35712	82
0	4754	35717	81
0	4762	35776	82
0	4764	35840	83
0	4766	35904	84
0	4767	35908	83
0	4772	35910	82
0	4777	35919	81
0	4782	35968	82
0	4790	36000	83
0	4800	36031	82
0	4805	36032	83
0	4809	36058	82
0	4813	36064	81
0	4817	36067	80
0	4822	36096	81
0	4835	36160	82
0	4836	36176	81
0	4846	36224	82
0	4849	36288	81
0	4853	36288	82
0	4856	36352	83
0	4857	36361	82
0	4862	36416	83
0	4863	36421	82
0	4877	36480	83
0	4887	36544	84
0	4888	36564	83
0	4894	36608	84
0	4898	36672	85
0	4900	36736	86
0	4901	36756	85
0	4906	36788	84
0	4912	36800	85
0	4913	36825	84
0	4918	36844	83
0	4923	36860	82
0	4928	36864	83
0	4929	36873	82
0	4933	36875	81
0	4937	36911	80
0	4942	36928	81
0	4943	36930	80
0	4947	36975	79
0	4952	36992	80
0	4957	37056	81
0	4959	37120	82
0	4960	37178	81
0	4965	37184	82
0	4973	37248	83
0	4974	37270	82
0	4978	37303	81
0	4983	37312	82
0	4984	37330	81
0	4991	37354	80
0	5002	37376	81
0	5003	37417	80
0	5011	37440	81
0	5012	37450	80
0	5019	37472	79
0	5023	37474	78
0	5031	37504	79
0	5032	37506	78
0	5037	37568	79
0	5045	37632	80
0	5052	37671	79
0	5057	37696	80
0	5064	37758	79
0	5069	37760	80
0	5073	37775	79
0	5080	37797	78
0	5084	37810	77
0	5088	37814	76
0	5093	37824	77
0	5097	37865	76
0	5102	37888	77
0	5103	37920	76
0	5107	37922	75
0	5111	37930	74
0	5116	37952	75
0	5117	37971	74
0	5121	37983	73
0	5134	38014	72
0	5139	38016	73
0	5144	38080	74
0	5149	38144	75
0	5153	38155	74
0	5157	38163	73
0	5164	38193	72
0	5168	38208	71
0	5170	38208	70
0	5173	38208	71
0	5185	38272	72
0	5196	38336	73
0	5197	38354	72
0	5208	38400	73
0	5222	38461	72
0	5227	38464	73
0	5228	38465	72
0	5236	38528	73
0	5237	38539	72
0	5253	38592	73
0	5256	38606	72
0	5265	38652	71
0	5270	38654	70
0	5276	38656	71
0	5277	38702	70
0	5285	38720	71
0	5289	38784	72
0	5290	38794	71
0	5295	38813	70
0	5300	38848	71
0	5305	38912	72
0	5309	38976	73
0	5322	39040	74
0	5323	39059	73
0	5330	39078	72
0	5336	39104	73
0	5337	39110	72
0	5349	39168	73
0	5350	39206	72
0	5355	39209	71
0	5361	39232	72
0	5363	39296	73
0	5367	39360	74
0	5368	39405	73
0	5374	39424	74
0	5378	39488	75
0	5379	39512	74
0	5386	39551	73
0	5392	39552	74
0	5393	39554	73
0	5400	39578	72
0	5406	39616	73
0	5407	39635	72
0	5415	39680	73
0	5419	39744	74
0	5420	39750	73
0	5428	39808	74
0	5430	39872	75
0	5431	39900	74
0	5436	39935	73
0	5441	39936	74
0	5450	40000	75
0	5451	40021	74
0	5459	40064	75
0	5463	40128	76
0	5464	40138	75
0	5474	40192	76
0	5476	40256	77
0	5477	40278	76
0	5483	40320	77
0	5487	40384	78
0	5488	40446	77
0	5494	40448	78
0	5495	40474	77
0	5500	40490	76
0	5509	40512	77
0	5510	40538	76
0	5522	40576	77
0	5528	40640	78
0	5533	40656	77
0	5539	40704	78
0	5540	40717	77
0	5545	40740	76
0	5551	40768	77
0	5552	40792	76
0	5560	40832	77
0	5564	40896	78
0	5565	40958	77
0	5571	40960	78
0	5572	40979	77
0	5578	41024	78
0	5585	41069	77
0	5591	41088	78
0	5594	41140	77
0	5599	41143	76
0	5605	41152	77
0	5606	41171	76
0	5611	41186	75
0	5619	41216	76
0	5620	41247	75
0	5627	41264	74
0	5631	41266	73
0	5639	41280	74
0	5640	41302	73
0	5649	41344	74
0	5650	41345	73
0	5654	41347	72
0	5659	41408	73
0	5665	41450	72
0	5670	41472	73
0	5682	41536	74
0	5685	41574	73
0	5691	41600	74
0	5695	41664	75
0	5696	41727	74
0	5702	41728	75
0	5704	41792	76
0	5705	41843	75
0	5711	41856	76
0	5712	41864	75
0	5718	41920	76
0	5719	41929	75
0	5731	41984	76
0	5736	42000	77
0	5740	42048	78
0	5741	42052	77
0	5746	42053	76
0	5752	42059	75
0	5762	42076	74
0	5770	42112	75
0	5777	42176	76
0	5778	42219	75
0	5784	42240	76
0	5785	42302	75
0	5790	42304	76
0	5798	42337	75
0	5803	42338	74
0	5809	42368	75
0	5811	42432	76
0	5812	42438	75
0	5819	42443	74
0	5829	42496	75
0	5831	42560	76
0	5837	42624	77
0	5845	42688	78
0	5846	42693	77
0	5852	42752	78
0	5856	42816	79
0	5858	42880	80
0	5859	42936	79
0	5865	42944	80
0	5867	43008	81
0	5868	43016	80
0	5877	43072	81
0	5880	43136	82
0	5884	43200	83
0	5885	43243	82
0	5891	43264	83
0	5893	43328	84
0	5897	43392	85
0	5898	43407	84
0	5904	43456	85
0	5908	43502	84
0	5913	43512	83
0	5921	43520	84
0	5922	43554	83
0	5928	43584	84
0	5929	43628	83
0	5934	43639	82
0	5939	43648	83
0	5946	43712	84
0	5949	43756	83
0	5957	43776	84
0	5958	43777	83
0	5971	43820	82
0	5983	43840	83
0	5985	43904	84
0	5986	43919	83
0	5992	43968	84
0	5993	43981	83
0	5998	43985	82
0	6003	43990	81
0	6009	44032	82
0	6013	44096	83
0	6014	44110	82
0	6022	44160	83
0	6030	44224	84
0	6032	44288	85
0	6033	44304	84
0	6041	44352	85
0	6043	44416	86
0	6045	44480	87
0	6046	44508	86
0	6052	44544	87
0	6054	44608	88
0	6055	44670	87
0	6061	44672	88
0	6064	44730	87
0	6070	44736	88
0	6071	44756	87
0	6076	44791	86
0	6082	44800	87
0	6085	44844	86
0	6091	44864	87
0	6094	44914	86
0	6100	44928	87
0	6101	44960	86
0	6106	44992	87
0	6118	45056	88
0	6124	45120	89
0	6130	45184	90
0	6131	45242	89
0	6137	45248	90
0	6140	45295	89
0	6148	45312	90
0	6151	45360	89
0	6156	45363	88
0	6162	45376	89
0	6168	45440	90
0	6170	45504	91
0	6171	45517	90
0	6177	45568	91
0	6178	45571	90
0	6183	45611	89
0	6189	45632	90
0	6190	45638	89
0	6198	45696	90
0	6202	45760	91
0	6208	45824	92
0	6210	45888	93
0	6211	45905	92
0	6217	45952	93
0	6218	45963	92
0	6223	45999	91
0	6229	46016	92
0	6233	46080	93
0	6237	46144	94
0	6238	46176	93
0	6244	46208	94
0	6245	46218	93
0	6251	46272	94
0	6255	46336	95
0	6256	46363	94
0	6263	46388	93
0	6269	46400	94
0	6275	46464	95
0	6276	46496	94
0	6287	46528	95
0	6288	46547	94
0	6294	46592	95
0	6295	46603	94
0	6303	46656	95
0	6304	46669	94
0	6309	46685	93
0	6321	46720	94
0	6322	46748	93
0	6328	46784	94
0	6329	46785	93
0	6336	46821	92
0	6342	46848	93
0	6343	46859	92
0	6348	46875	91
0	6356	46912	92
0	6365	46963	91
0	6371	46976	92
0	6379	47040	93
0	6381	47104	94
0	6382	47160	93
0	6388	47168	94
0	6390	47232	95
0	6391	47241	94
0	6399	47296	95
0	6400	47310	94
0	6408	47360	95
0	6412	47424	96
0	6413	47451	95
0	6414	47451	94
0	6426	47488	95
0	6427	47546	94
0	6432	47548	93
0	6438	47552	94
0	6445	47608	93
0	6451	47616	94
0	6454	47652	93
0	6459	47665	92
0	6465	47680	93
0	6468	47741	92
0	6474	47744	93
0	6480	47758	92
0	6487	47808	93
0	6489	47872	94
0	6491	47936	95
0	6492	47954	94
0	6502	48000	95
0	6504	48000	96
0	6507	48064	97
0	6510	48109	96
0	6516	48128	97
0	6517	48145	96
0	6522	48160	95
0	6528	48192	96
0	6531	48211	95
0	6550	48256	96
0	6553	48298	95
0	6559	48320	96
0	6560	48359	95
0	6568	48384	96
0	6573	48437	95
0	6579	48448	96
0	6582	48471	95
0	6589	48502	94
0	6597	48512	95
0	6598	48520	94
0	6606	48576	95
0	6607	48587	94
0	6614	48640	93
0	6618	48640	94
0	6621	48643	93
0	6631	48704	94
0	6634	48712	93
0	6640	48768	94
0	6643	48801	93
0	6649	48832	94
0	6650	48833	93
0	6655	48845	92
0	6662	48885	91
0	6668	48896	92
0	6676	48960	93
0	6677	48964	92
0	6684	48975	91
0	6689	48981	90
0	6695	49024	91
0	6697	49088	92
0	6698	49099	91
0	6708	49152	92
0	6710	49216	93
0	6711	49245	92
0	6717	49280	93
0	6720	49306	92
0	6726	49344	93
0	6729	49381	92
0	6735	49408	93
0	6736	49425	92
0	6741	49431	91
0	6751	49472	92
0	6755	49509	91
0	6763	49536	92
0	6771	49600	93
0	6774	49619	92
0	6779	49624	91
0	6789	49664	92
0	6793	49728	93
0	6794	49745	92
0	6800	49792	93
0	6806	49856	94
0	6807	49904	93
0	6813	49920	94
0	6817	49984	95
0	6818	50020	94
0	6824	50048	95
0	6825	50062	94
0	6833	50112	95
0	6835	50176	96
0	6837	50240	97
0	6838	50261	96
0	6843	50268	95
0	6850	50301	94
0	6855	50304	93
0	6859	50304	94
0	6864	50361	93
0	6870	50368	94
0	6873	50422	93
0	6879	50432	94
0	6880	50449	93
0	6885	50496	94
0	6886	50498	93
0	6890	50505	92
0	6894	50555	91
0	6899	50560	92
0	6903	50595	91
0	6910	50612	90
0	6915	50624	91
0	6917	50688	92
0	6918	50725	91
0	6926	50752	92
0	6928	50816	93
0	6936	50880	94
0	6941	50944	95
0	6942	50955	94
0	6949	51001	93
0	6957	51008	94
0	6962	51072	95
0	6973	51136	96
0	6983	51200	97
0	6984	51223	96
0	6990	51264	97
0	6993	51293	96
0	6999	51328	97
0	7000	51379	96
0	7006	51392	97
0	7010	51456	98
0	7011	51504	97
0	7017	51520	98
0	7021	51584	99
0	7022	51615	98
0	7030	51648	99
0	7034	51712	100
0	7036	51776	101
0	7037	51810	100
0	7043	51840	101
0	7044	51888	100
0	7050	51904	101
0	7052	51968	102
0	7053	51988	101
0	7059	52032	102
0	7060	52074	101
0	7066	52096	102
0	7067	52102	101
0	7075	52160	102
0	7079	52224	103
0	7082	52281	102
0	7088	52288	103
0	7091	52301	102
0	7099	52352	103
0	7102	52409	102
0	7108	52416	103
0	7109	52469	102
0	7115	52480	103
0	7121	52515	102
0	7127	52544	103
0	7131	52608	104
0	7135	52672	105
0	7136	52683	104
0	7144	52736	105
0	7146	52800	106
0	7147	52817	105
0	7161	52864	106
0	7162	52881	105
0	7167	52884	104
0	7174	52928	105
0	7176	52979	104
0	7182	52992	105
0	7188	53056	106
0	7190	53120	107
0	7191	53140	106
0	7197	53184	107
0	7201	53248	108
0	7202	53303	107
0	7207	53310	106
0	7213	53312	107
0	7217	53376	108
0	7220	53391	107
0	7225	53413	106
0	7231	53440	107
0	7235	53504	108
0	7239	53568	109
0	7240	53607	108
0	7246	53632	109
0	7251	53674	108
0	7256	53683	107
0	7261	53689	106
0	7267	53696	107
0	7268	53697	106
0	7276	53760	107
0	7277	53770	106
0	7282	53780	105
0	7290	53824	106
0	7295	53877	105
0	7301	53888	106
0	7305	53952	107
0	7306	53957	106
0	7311	53979	105
0	7321	54000	106
0	7325	54009	105
0	7331	54016	106
0	7339	54039	105
0	7346	54077	104
0	7351	54080	105
0	7352	54082	104
0	7362	54138	103
0	7367	54144	104
0	7368	54207	103
0	7373	54208	104
0	7380	54239	103
0	7390	54272	104
0	7396	54336	105
0	7400	54400	106
0	7401	54447	105
0	7407	54464	106
0	7408	54470	105
0	7413	54504	104
0	7423	54528	105
0	7424	54529	104
0	7429	54535	103
0	7439	54592	104
0	7442	54648	103
0	7448	54656	104
0	7452	54720	105
0	7454	54784	106
0	7455	54831	105
0	7461	54848	106
0	7469	54912	107
0	7473	54976	108
0	7474	54978	107
0	7480	55040	108
0	7481	55052	107
0	7487	55104	108
0	7489	55168	109
0	7491	55232	110
0	7495	55296	111
0	7499	55360	112
0	7500	55366	111
0	7506	55424	112
0	7508	55488	113
0	7512	55523	112
0	7518	55552	113
0	7519	55596	112
0	7525	55616	113
0	7535	55680	114
0	7538	55710	113
0	7543	55717	112
0	7548	55720	111
0	7556	55744	112
0	7557	55755	111
0	7565	55808	112
0	7566	55826	111
0	7571	55832	110
0	7578	55862	109
0	7583	55872	110
0	7584	55888	109
0	7588	55926	108
0	7593	55936	109
0	7598	56000	110
0	7602	56022	109
0	7609	56058	108
0	7614	56064	109
0	7621	56115	108
0	7626	56128	109
0	7627	56141	108
0	7631	56162	107
0	7636	56192	108
0	7643	56217	107
0	7647	56234	106
0	7655	56256	107
0	7663	56320	108
0	7668	56375	107
0	7676	56384	108
0	7680	56448	109
0	7681	56491	108
0	7687	56512	109
0	7691	56576	110
0	7692	56598	109
0	7697	56626	108
0	7705	56640	109
0	7706	56666	108
0	7716	56704	109
0	7717	56747	108
0	7722	56753	107
0	7728	56768	108
0	7729	56802	107
0	7734	56826	106
0	7739	56832	107
0	7740	56854	106
0	7745	56896	107
0	7749	56907	106
0	7760	56960	107
0	7761	56979	106
0	7769	57024	107
0	7773	57027	106
0	7780	57073	105
0	7785	57088	106
0	7786	57115	105
0	7790	57149	104
0	7795	57152	105
0	7802	57177	104
0	7810	57216	105
0	7817	57280	106
0	7818	57292	105
0	7826	57344	106
0	7832	57408	107
0	7833	57440	106
0	7838	57452	105
0	7846	57472	106
0	7847	57487	105
0	7855	57536	106
0	7857	57600	107
0	7861	57664	108
0	7862	57704	107
0	7870	57728	108
0	7872	57792	109
0	7873	57824	108
0	7879	57856	109
0	7880	57874	108
0	7890	57920	109
0	7891	57932	108
0	7896	57974	107
0	7902	57984	108
0	7903	57991	107
0	7908	58017	106
0	7916	58048	107
0	7920	58112	108
0	7925	58174	107
0	7931	58176	108
0	7932	58188	107
0	7937	58217	106
0	7943	58240	107
0	7946	58270	106
0	7951	58273	105
0	7955	58276	104
0	7959	58288	103
0	7964	58304	104
0	7965	58306	103
0	7969	58348	102
0	7978	58368	103
0	7985	58432	104
0	7993	58496	105
0	8007	58560	106
0	8008	58568	105
0	8012	58606	104
0	8017	58624	105
0	8028	58688	106
0	8031	58718	105
0	8037	58752	106