version 3
run General-4-20240513-00:14:45-20028
attr configname General
attr datetime 20240513-00:14:45
attr datetimef 20240513-001445
attr experiment General
attr inifile omnetpp.ini
attr iterationvars ""
attr iterationvarsd ""
attr iterationvarsf ""
attr measurement ""
attr network AirportControl
attr processid 20028
attr repetition 4
attr replication #4
attr resultdir results
attr runnumber 4
attr seedset 4
config network AirportControl
config repeat 10
config simtime-resolution s
config sim-time-limit 1440min
config **.PrioT_PCT.jobType 0
config **.PrioT_PCF.jobType 1
config **.PrioF_PCT.jobType 2
config **.PrioF_PCF.jobType 3
config **.PrioT_PCT.probArrival 0.04
config **.PrioT_PCF.probArrival 0.01
config **.PrioF_PCT.probArrival 0.01
config **.PrioF_PCF.probArrival 0.94
config **.PrioT_PCT.interarrivalRateRush 0.4min
config **.PrioT_PCF.interarrivalRateRush 0.4min
config **.PrioF_PCT.interarrivalRateRush 0.4min
config **.PrioF_PCF.interarrivalRateRush 0.4min
config **.PrioF_PCF.interarrivalRateNormal 1min
config **.PrioT_PCT.interarrivalRateNormal 1min
config **.PrioF_PCT.interarrivalRateNormal 1min
config **.PrioT_PCF.interarrivalRateNormal 1min
config **.PrioF_PCF.numberOfPeaks 4
config **.PrioF_PCT.numberOfPeaks 4
config **.PrioT_PCF.numberOfPeaks 4
config **.PrioT_PCT.numberOfPeaks 4
config **.PrioF_PCF.durationOfPeaks 150min
config **.PrioF_PCT.durationOfPeaks 150min
config **.PrioT_PCF.durationOfPeaks 150min
config **.PrioT_PCT.durationOfPeaks 150min
config **.PrioT_Server.serviceTime exponential(3min)
config **.PrioF_Server3.serviceTime exponential(5min)
config **.PrioF_Server2.serviceTime exponential(5min)
config **.PrioF_Server1.serviceTime exponential(5min)
config **.PrioF_Server0.serviceTime exponential(5min)
config **.NoPC_Server0.serviceTime exponential(3min)
config **.NoPC_Server3.serviceTime exponential(3min)
config **.NoPC_Server2.serviceTime exponential(3min)
config **.NoPC_Server1.serviceTime exponential(3min)
config **.PC_Server0.serviceTime exponential(1min)
config **.PC_Server1.serviceTime exponential(1min)

vector 0 AirportControl.PrioF_PQ queueLength:vector ETV
attr interpolationmode sample-hold
attr recordingmode vector
attr title "queue length"
vector 1 AirportControl.PrioT_PQ queueLength:vector ETV
attr interpolationmode sample-hold
attr recordingmode vector
attr title "queue length"
vector 2 AirportControl.NoPC_PQ queueLength:vector ETV
attr interpolationmode sample-hold
attr recordingmode vector
attr title "queue length"
vector 3 AirportControl.PC_PQ queueLength:vector ETV
attr interpolationmode sample-hold
attr recordingmode vector
attr title "queue length"
vector 4 AirportControl.sink lifeTime:vector ETV
attr interpolationmode none
attr recordingmode vector
attr title "lifetime of arrived jobs"
attr unit s
0	0	0	0
0	33	320	1
0	35	384	2
0	39	448	3
0	41	512	4
0	42	568	3
0	48	576	4
0	56	615	3
0	64	640	4
0	69	691	3
0	74	693	2
0	80	704	3
0	81	709	2
0	91	768	3
0	94	778	2
0	100	832	3
0	103	841	2
0	108	844	1
0	115	864	0
0	120	896	1
0	121	918	0
0	132	960	1
0	136	1024	2
0	137	1067	1
0	142	1070	0
0	150	1088	1
0	156	1152	2
0	157	1162	1
0	162	1176	0
0	168	1216	1
0	169	1217	0
0	181	1280	1
0	183	1344	2
0	186	1389	1
0	194	1408	2
0	195	1437	1
0	201	1472	2
0	208	1536	3
0	210	1600	4
0	212	1664	5
0	214	1728	6
0	216	1792	7
0	218	1856	8
0	225	1900	7
0	231	1920	8
0	232	1957	7
0	241	1980	6
0	247	1984	7
0	253	2048	8
0	254	2074	7
0	260	2112	8
0	261	2118	7
0	266	2129	6
0	272	2176	7
0	274	2240	8
0	275	2255	7
0	280	2282	6
0	284	2286	5
0	289	2304	6
0	291	2368	7
0	293	2432	8
0	300	2480	7
0	305	2496	8
0	311	2514	7
0	316	2515	6
0	321	2560	7
0	325	2566	6
0	341	2624	7
0	343	2688	8
0	344	2751	7
0	350	2752	8
0	351	2789	7
0	357	2816	8
0	360	2827	7
0	368	2880	8
0	371	2943	7
0	377	2944	8
0	382	3008	9
0	383	3056	8
0	389	3072	9
0	390	3095	8
0	395	3114	7
0	404	3132	6
0	410	3136	7
0	411	3140	6
0	416	3142	5
0	430	3200	6
0	435	3262	5
0	441	3264	6
0	442	3275	5
0	454	3328	6
0	455	3329	5
0	462	3372	4
0	468	3392	5
0	472	3456	6
0	473	3505	5
0	478	3507	4
0	484	3520	5
0	487	3569	4
0	492	3571	3
0	500	3584	4
0	501	3631	3
0	507	3648	4
0	509	3712	5
0	510	3776	4
0	514	3776	5
0	523	3809	4
0	529	3840	5
0	533	3904	6
0	534	3946	5
0	540	3968	6
0	541	4007	5
0	547	4032	6
0	551	4096	7
0	552	4108	6
0	560	4160	7
0	566	4224	8
0	567	4264	7
0	573	4288	8
0	574	4341	7
0	582	4352	8
0	583	4383	7
0	588	4385	6
0	594	4416	7
0	596	4480	8
0	603	4544	9
0	604	4596	8
0	612	4608	9
0	624	4672	10
0	627	4712	9
0	635	4736	10
0	637	4800	11
0	639	4864	12
0	640	4928	11
0	644	4928	12
0	647	4943	11
0	654	4977	10
0	659	4985	9
0	667	4992	10
0	670	5012	9
0	678	5056	10
0	680	5120	11
0	682	5184	12
0	683	5202	11
0	688	5222	10
0	694	5248	11
0	699	5290	10
0	705	5312	11
0	706	5331	10
0	711	5339	9
0	717	5376	10
0	721	5440	11
0	724	5455	10
0	731	5475	9
0	736	5490	8
0	742	5504	9
0	743	5525	8
0	751	5568	9
0	754	5617	8
0	760	5632	9
0	761	5652	8
0	766	5696	9
0	773	5760	10
0	775	5824	11
0	776	5834	10
0	781	5871	9
0	791	5888	10
0	792	5893	9
0	797	5906	8
0	802	5952	9
0	807	6000	10
0	811	6016	11
0	812	6072	10
0	817	6080	11
0	824	6120	10
0	829	6144	11
0	842	6201	10
0	848	6208	11
0	852	6272	12
0	862	6336	13
0	863	6391	12
0	864	6391	11
0	874	6400	12
0	877	6441	11
0	883	6464	12
0	886	6520	11
0	892	6528	12
0	898	6592	13
0	899	6633	12
0	905	6656	13
0	906	6670	12
0	912	6720	13
0	918	6784	14
0	919	6842	13
0	925	6848	14
0	926	6856	13
0	938	6912	14
0	939	6922	13
0	944	6933	12
0	954	6976	13
0	955	6988	12
0	964	7016	11
0	970	7040	12
0	971	7085	11
0	977	7104	12
0	978	7111	11
0	984	7168	12
0	986	7232	13
0	990	7296	14
0	991	7309	13
0	997	7360	14
0	1001	7424	15
0	1003	7488	16
0	1007	7507	15
0	1013	7552	16
0	1021	7616	17
0	1022	7631	16
0	1027	7632	15
0	1034	7650	14
0	1042	7680	15
0	1043	7697	14
0	1048	7708	13
0	1054	7744	14
0	1057	7808	13
0	1061	7808	14
0	1068	7818	13
0	1074	7872	14
0	1078	7936	15
0	1086	8000	16
0	1088	8064	17
0	1089	8128	16
0	1093	8128	17
0	1098	8156	16
0	1103	8185	15
0	1109	8192	16
0	1112	8230	15
0	1120	8256	16
0	1124	8320	17
0	1127	8373	16
0	1133	8384	17
0	1137	8448	18
0	1139	8512	19
0	1141	8576	20
0	1143	8640	21
0	1144	8662	20
0	1151	8682	19
0	1159	8704	20
0	1161	8768	21
0	1162	8792	20
0	1167	8804	19
0	1172	8809	18
0	1178	8832	19
0	1180	8896	20
0	1182	8960	21
0	1194	9013	20
0	1202	9024	21
0	1205	9044	20
0	1211	9088	21
0	1215	9152	22
0	1217	9216	23
0	1218	9274	22
0	1224	9280	23
0	1225	9334	22
0	1231	9344	23
0	1235	9408	24
0	1239	9472	25
0	1242	9509	24
0	1250	9536	25
0	1252	9600	26
0	1253	9603	25
0	1258	9604	24
0	1264	9664	25
0	1268	9728	26
0	1269	9769	25
0	1274	9771	24
0	1282	9792	25
0	1283	9802	24
0	1288	9854	23
0	1294	9856	24
0	1298	9920	25
0	1299	9956	24
0	1307	9984	25
0	1308	9995	24
0	1314	10048	25
0	1317	10102	24
0	1323	10112	25
0	1324	10113	24
0	1329	10176	25
0	1330	10233	24
0	1338	10240	25
0	1347	10304	26
0	1349	10368	27
0	1351	10432	28
0	1352	10435	27
0	1357	10451	26
0	1367	10496	27
0	1369	10500	26
0	1376	10511	25
0	1382	10560	26
0	1386	10624	27
0	1387	10658	26
0	1394	10676	25
0	1400	10688	26
0	1408	10752	27
0	1411	10761	26
0	1416	10790	25
0	1424	10816	26
0	1432	10880	27
0	1433	10893	26
0	1438	10921	25
0	1446	10944	26
0	1448	11008	27
0	1450	11072	28
0	1452	11136	29
0	1453	11165	28
0	1461	11200	29
0	1463	11264	30
0	1464	11323	29
0	1469	11328	28
0	1473	11328	29
0	1479	11392	30
0	1484	11452	29
0	1489	11453	28
0	1495	11456	29
0	1501	11520	30
0	1503	11584	31
0	1504	11590	30
0	1509	11628	29
0	1514	11629	28
0	1520	11648	29
0	1521	11673	28
0	1529	11712	29
0	1532	11746	28
0	1537	11747	27
0	1542	11776	28
0	1547	11840	29
0	1551	11904	30
0	1555	11968	31
0	1560	12000	32
0	1564	12032	33
0	1568	12096	34
0	1569	12141	33
0	1577	12160	34
0	1579	12224	35
0	1581	12288	36
0	1590	12352	37
0	1592	12416	38
0	1594	12480	39
0	1595	12494	38
0	1600	12504	37
0	1612	12544	38
0	1613	12556	37
0	1621	12608	38
0	1627	12672	39
0	1628	12684	38
0	1634	12736	39
0	1635	12786	38
0	1643	12800	39
0	1644	12845	38
0	1652	12864	39
0	1653	12894	38
0	1661	12928	39
0	1662	12969	38
0	1667	12988	37
0	1674	12992	38
0	1677	13056	39
0	1678	13077	38
0	1683	13090	37
0	1693	13120	38
0	1694	13128	37
0	1701	13184	38
0	1703	13189	37
0	1708	13198	36
0	1712	13203	35
0	1723	13248	36
0	1724	13269	35
0	1729	13312	36
0	1730	13353	35
0	1738	13376	36
0	1739	13381	35
0	1743	13430	34
0	1748	13440	35
0	1749	13446	34
0	1757	13504	35
0	1761	13523	34
0	1769	13568	35
0	1773	13595	34
0	1778	13632	35
0	1783	13696	36
0	1784	13714	35
0	1791	13722	34
0	1798	13748	33
0	1806	13760	34
0	1814	13824	35
0	1818	13888	36
0	1821	13921	35
0	1827	13952	36
0	1835	14016	37
0	1836	14035	36
0	1843	14065	35
0	1849	14080	36
0	1852	14127	35
0	1858	14144	36
0	1865	14181	35
0	1873	14208	36
0	1874	14260	35
0	1880	14272	36
0	1881	14276	35
0	1891	14336	36
0	1893	14400	37
0	1895	14464	38
0	1897	14528	39
0	1899	14592	40
0	1900	14656	39
0	1904	14656	40
0	1907	14687	39
0	1913	14720	40
0	1918	14780	39
0	1924	14784	40
0	1927	14837	39
0	1933	14848	40
0	1934	14863	39
0	1939	14875	38
0	1944	14876	37
0	1952	14912	38
0	1953	14955	37
0	1958	14976	38
0	1959	14997	37
0	1966	15005	36
0	1970	15023	35
0	1981	15040	36
0	1982	15046	35
0	1986	15049	34
0	1991	15104	35
0	1998	15124	34
0	2011	15137	33
0	2018	15158	32
0	2023	15168	33
0	2034	15232	34
0	2042	15296	35
0	2044	15360	36
0	2045	15412	35
0	2051	15424	36
0	2053	15488	37
0	2055	15552	38
0	2057	15616	39
0	2058	15627	38
0	2066	15680	39
0	2070	15744	40
0	2072	15808	41
0	2074	15872	42
0	2077	15912	41
0	2083	15936	42
0	2084	15974	41
0	2092	16000	42
0	2093	16054	41
0	2099	16064	42
0	2103	16128	43
0	2104	16137	42
0	2112	16192	43
0	2114	16256	44
0	2116	16320	45
0	2117	16374	44
0	2125	16384	45
0	2127	16448	46
0	2132	16512	47
0	2133	16571	46
0	2139	16576	47
0	2143	16640	48
0	2153	16704	49
0	2154	16719	48
0	2160	16768	49
0	2162	16832	50
0	2165	16891	49
0	2171	16896	50
0	2173	16960	51
0	2174	16976	50
0	2179	16977	49
0	2185	17024	50
0	2186	17030	49
0	2191	17069	48
0	2195	17075	47
0	2200	17088	48
0	2201	17148	47
0	2206	17152	48
0	2216	17188	47
0	2221	17216	48
0	2227	17234	47
0	2232	17235	46
0	2236	17247	45
0	2241	17280	46
0	2245	17308	45
0	2255	17333	44
0	2260	17344	45
0	2267	17408	46
0	2273	17472	47
0	2274	17494	46
0	2280	17536	47
0	2281	17537	46
0	2288	17563	45
0	2294	17600	46
0	2295	17614	45
0	2300	17636	44
0	2305	17664	45
0	2306	17669	44
0	2311	17728	45
0	2312	17782	44
0	2319	17785	43
0	2324	17792	44
0	2332	17856	45
0	2336	17919	44
0	2341	17920	45
0	2342	17924	44
0	2346	17947	43
0	2351	17984	44
0	2359	18000	45
0	2364	18048	46
0	2380	18112	47
0	2385	18154	46
0	2393	18176	47
0	2403	18240	48
0	2405	18304	49
0	2407	18368	50
0	2408	18409	49
0	2413	18421	48
0	2418	18425	47
0	2424	18432	48
0	2430	18496	49
0	2432	18560	50
0	2433	18606	49
0	2439	18624	50
0	2440	18684	49
0	2446	18688	50
0	2449	18708	49
0	2454	18730	48
0	2459	18736	47
0	2464	18752	48
0	2465	18773	47
0	2470	18816	48
0	2474	18851	47
0	2479	18880	48
0	2483	18899	47
0	2494	18944	48
0	2495	18947	47
0	2504	18999	46
0	2510	19008	47
0	2514	19072	48
0	2517	19121	47
0	2523	19136	48
0	2524	19142	47
0	2531	19179	46
0	2537	19200	47
0	2541	19264	48
0	2542	19274	47
0	2547	19279	46
0	2555	19328	47
0	2556	19329	46
0	2560	19358	45
0	2568	19392	46
0	2574	19415	45
0	2580	19456	46
0	2589	19520	47
0	2590	19527	46
0	2596	19584	47
0	2597	19587	46
0	2603	19648	47
0	2609	19712	48
0	2610	19730	47
0	2618	19776	48
0	2620	19840	49
0	2630	19904	50
0	2631	19941	49
0	2639	19968	50
0	2642	19992	49
0	2647	19998	48
0	2653	20032	49
0	2654	20043	48
0	2660	20096	49
0	2661	20160	48
0	2665	20160	49
0	2670	20209	48
0	2676	20224	49
0	2677	20247	48
0	2681	20286	47
0	2686	20288	48
0	2694	20352	49
0	2695	20359	48
0	2700	20416	49
0	2702	20480	50
0	2703	20537	49
0	2708	20544	50
0	2709	20568	49
0	2714	20608	50
0	2716	20672	51
0	2717	20683	50
0	2721	20698	49
0	2725	20704	48
0	2733	20736	49
0	2741	20800	50
0	2753	20847	49
0	2761	20864	50
0	2762	20896	49
0	2770	20928	50
0	2774	20992	51
0	2778	21004	50
0	2787	21031	49
0	2793	21056	50
0	2794	21091	49
0	2804	21120	50
0	2810	21184	51
0	2811	21186	50
0	2821	21248	51
0	2825	21312	52
0	2826	21354	51
0	2832	21376	52
0	2833	21380	51
0	2841	21440	52
0	2843	21504	53
0	2847	21568	54
0	2849	21632	55
0	2850	21661	54
0	2856	21696	55
0	2859	21757	54
0	2865	21760	55
0	2867	21824	56
0	2869	21888	57
0	2872	21910	56
0	2880	21952	57
0	2881	21987	56
0	2887	22016	57
0	2888	22025	56
0	2894	22080	57
0	2900	22144	58
0	2901	22164	57
0	2906	22184	56
0	2912	22208	57
0	2913	22221	56
0	2920	22241	55
0	2926	22272	56
0	2927	22281	55
0	2932	22289	54
0	2942	22336	55
0	2944	22400	56
0	2945	22458	55
0	2951	22464	56
0	2955	22502	55
0	2964	22528	56
0	2965	22537	55
0	2974	22589	54
0	2979	22592	55
0	2983	22641	54
0	2991	22656	55
0	2995	22685	54
0	2999	22696	53
0	3007	22720	54
0	3013	22735	53
0	3023	22784	54
0	3024	22844	53
0	3030	22848	54
0	3031	22864	53
0	3036	22891	52
0	3041	22912	53
0	3042	22913	52
0	3047	22976	53
0	3057	23040	54
0	3058	23065	53
0	3068	23104	54
0	3070	23168	55
0	3074	23232	56
0	3076	23296	57
0	3078	23360	58
0	3080	23424	59
0	3081	23430	58
0	3089	23488	59
0	3091	23552	60
0	3093	23616	61
0	3097	23680	62
0	3099	23744	63
0	3100	23776	62
0	3105	23782	61
0	3111	23808	62
0	3113	23872	63
0	3117	23936	64
0	3118	23984	63
0	3128	24000	64
0	3130	24000	65
0	3136	24037	64
0	3142	24064	65
0	3144	24128	66
0	3147	24148	65
0	3152	24174	64
0	3158	24192	65
0	3162	24256	66
0	3163	24306	65
0	3168	24316	64
0	3174	24320	65
0	3185	24384	66
0	3186	24408	65
0	3194	24448	66
0	3203	24508	65
0	3209	24512	66
0	3212	24533	65
0	3218	24576	66
0	3221	24609	65
0	3227	24640	66
0	3233	24704	67
0	3234	24736	66
0	3240	24768	67
0	3242	24832	68
0	3243	24891	67
0	3251	24896	68
0	3253	24960	69
0	3254	24976	68
0	3259	24979	67
0	3267	25024	68
0	3268	25027	67
0	3273	25046	66
0	3279	25088	67
0	3281	25152	68
0	3285	25216	69
0	3287	25280	70
0	3288	25340	69
0	3294	25344	70
0	3297	25360	69
0	3305	25408	70
0	3307	25472	71
0	3308	25481	70
0	3316	25504	69
0	3320	25525	68
0	3325	25536	69
0	3326	25540	68
0	3327	25540	67
0	3334	25576	66
0	3345	25600	67
0	3346	25607	66
0	3358	25664	67
0	3362	25728	68
0	3370	25792	69
0	3374	25805	68
0	3378	25825	67
0	3386	25856	68
0	3387	25890	67
0	3392	25920	68
0	3402	25984	69
0	3406	26048	70
0	3410	26112	71
0	3411	26117	70
0	3419	26176	71
0	3421	26240	72
0	3424	26284	71
0	3430	26304	72
0	3431	26326	71
0	3439	26368	72
0	3440	26381	71
0	3448	26432	72
0	3452	26496	73
0	3453	26498	72
0	3459	26560	73
0	3463	26624	74
0	3465	26688	75
0	3467	26752	76
0	3468	26754	75
0	3473	26762	74
0	3479	26816	75
0	3481	26880	76
0	3482	26885	75
0	3487	26902	74
0	3493	26944	75
0	3504	27008	76
0	3507	27038	75
0	3513	27072	76
0	3514	27073	75
0	3524	27136	76
0	3530	27200	77
0	3531	27258	76
0	3537	27264	77
0	3539	27328	78
0	3542	27373	77
0	3548	27392	78
0	3549	27403	77
0	3557	27456	78
0	3561	27520	79
0	3562	27547	78
0	3567	27565	77
0	3573	27584	78
0	3579	27648	79
0	3580	27675	78
0	3586	27712	79
0	3588	27776	80
0	3589	27786	79
0	3595	27840	80
0	3596	27843	79
0	3606	27904	80
0	3607	27905	79
0	3613	27968	80
0	3614	28004	79
0	3619	28007	78
0	3623	28030	77
0	3628	28032	78
0	3633	28096	79
0	3637	28109	78
0	3645	28160	79
0	3646	28179	78
0	3650	28183	77
0	3658	28224	78
0	3667	28288	79
0	3668	28300	78
0	3673	28319	77
0	3681	28352	78
0	3685	28416	79
0	3686	28439	78
0	3694	28480	79
0	3700	28530	78
0	3706	28544	79
0	3707	28565	78
0	3713	28608	79
0	3714	28658	78
0	3720	28672	79
0	3722	28736	80
0	3726	28800	81
0	3732	28864	82
0	3736	28928	83
0	3737	28938	82
0	3742	28939	81
0	3747	28987	80
0	3753	28992	81
0	3757	29056	82
0	3760	29094	81
0	3772	29120	82
0	3776	29184	83
0	3778	29248	84
0	3779	29295	83
0	3784	29311	82
0	3790	29312	83
0	3793	29316	82
0	3803	29376	83
0	3805	29440	84
0	3808	29451	83
0	3815	29478	82
0	3820	29490	81
0	3826	29504	82
0	3827	29509	81
0	3832	29512	80
0	3840	29568	81
0	3842	29632	82
0	3850	29696	83
0	3851	29709	82
0	3857	29760	83
0	3859	29824	84
0	3860	29825	83
0	3868	29888	84
0	3869	29947	83
0	3875	29952	84
0	3876	29963	83
0	3887	30000	84
0	3893	30016	85
0	3894	30025	84
0	3901	30051	83
0	3906	30069	82
0	3917	30080	83
0	3919	30144	84
0	3925	30208	85
0	3931	30272	86
0	3932	30289	85
0	3937	30309	84
0	3944	30336	85
0	3946	30389	84
0	3952	30400	85
0	3958	30464	86
0	3961	30491	85
0	3971	30528	86
0	3973	30592	87
0	3974	30606	86
0	3982	30656	87
0	3983	30686	86
0	3988	30701	85
0	3996	30720	86
0	3998	30784	87
0	3999	30804	86
0	4005	30848	87
0	4008	30860	86
0	4014	30912	87
0	4015	30920	86
0	4023	30976	87
0	4026	30990	86
0	4031	31018	85
0	4041	31040	86
0	4042	31102	85
0	4048	31104	86
0	4051	31128	85
0	4057	31168	86
0	4058	31213	85
0	4065	31221	84
0	4073	31232	85
0	4077	31296	86
0	4078	31300	85
0	4083	31354	84
0	4089	31360	85
0	4095	31424	86
0	4097	31488	87
0	4108	31552	88
0	4110	31616	89
0	4116	31680	90
0	4118	31744	91
0	4119	31754	90
0	4124	31767	89
0	4130	31808	90
0	4131	31847	89
0	4136	31856	88
0	4144	31872	89
0	4146	31936	90
0	4149	31982	89
0	4155	32000	90
0	4158	32023	89
0	4164	32064	90
0	4167	32075	89
0	4172	32123	88
0	4178	32128	89
0	4184	32192	90
0	4187	32215	89
0	4192	32228	88
0	4198	32256	89
0	4199	32280	88
0	4207	32320	89
0	4208	32337	88
0	4215	32344	87
0	4223	32384	88
0	4225	32448	89
0	4230	32508	88
0	4236	32512	89
0	4237	32522	88
0	4242	32566	87
0	4248	32576	88
0	4254	32640	89
0	4256	32704	90
0	4257	32705	89
0	4265	32768	90
0	4266	32779	89
0	4272	32832	90
0	4273	32868	89
0	4278	32885	88
0	4283	32896	89
0	4288	32960	90
0	4295	33024	91
0	4296	33048	90
0	4309	33075	89
0	4315	33088	90
0	4316	33149	89
0	4324	33152	90
0	4328	33216	91
0	4332	33280	92
0	4336	33344	93
0	4337	33360	92
0	4342	33403	91
0	4348	33408	92
0	4354	33472	93
0	4355	33510	92
0	4363	33536	93
0	4364	33598	92
0	4370	33600	93
0	4371	33616	92
0	4376	33630	91
0	4384	33664	92
0	4386	33728	93
0	4390	33792	94
0	4393	33799	93
0	4398	33800	92
0	4404	33856	93
0	4410	33920	94
0	4411	33946	93
0	4417	33984	94
0	4418	34005	93
0	4423	34021	92
0	4428	34044	91
0	4433	34048	92
0	4437	34108	91
0	4445	34112	92
0	4447	34176	93
0	4451	34240	94
0	4454	34247	93
0	4460	34304	94
0	4462	34368	95
0	4466	34432	96
0	4467	34444	95
0	4479	34496	96
0	4483	34519	95
0	4489	34560	96
0	4491	34624	97
0	4495	34688	98
0	4496	34714	97
0	4508	34752	98
0	4509	34778	97
0	4515	34816	98
0	4516	34856	97
0	4522	34880	98
0	4524	34944	99
0	4528	35008	100
0	4531	35042	99
0	4537	35072	100
0	4540	35106	99
0	4546	35136	100
0	4547	35145	99
0	4555	35200	100
0	4557	35264	101
0	4563	35328	102
0	4565	35392	103
0	4566	35428	102
0	4572	35456	103
0	4576	35520	104
0	4578	35584	105
0	4579	35587	104
0	4586	35648	103
0	4590	35648	104
0	4593	35654	103
0	4599	35712	104
0	4600	35762	103
0	4608	35776	104
0	4609	35829	103
0	4615	35840	104
0	4617	35904	105
0	4618	35930	104
0	4625	35945	103
0	4631	35968	104
0	4632	35981	103
0	4640	36000	104
0	4644	36032	105
0	4645	36078	104
0	4650	36096	105
0	4655	36160	106
0	4659	36211	105
0	4664	36224	106
0	4665	36256	105
0	4670	36288	106
0	4675	36328	105
0	4679	36334	104
0	4687	36352	105
0	4699	36416	106
0	4700	36438	105
0	4704	36449	104
0	4709	36480	105
0	4711	36544	106
0	4715	36608	105
0	4719	36608	106
0	4725	36672	107
0	4738	36736	108
0	4743	36800	107
0	4747	36800	108
0	4755	36864	109
0	4756	36894	108
0	4764	36928	109
0	4768	36992	110
0	4770	37056	111
0	4771	37073	110
0	4777	37120	111
0	4780	37181	110
0	4786	37184	111
0	4790	37248	112
0	4792	37312	113
0	4794	37376	114
0	4796	37440	115
0	4801	37504	116
0	4802	37512	115
0	4808	37568	116
0	4812	37632	117
0	4813	37641	116
0	4819	37696	117
0	4823	37760	118
0	4824	37791	117
0	4829	37818	116
0	4835	37824	117
0	4837	37888	118
0	4843	37952	119
0	4851	38016	120
0	4853	38080	121
0	4854	38081	120
0	4859	38093	119
0	4865	38144	120
0	4866	38146	119
0	4873	38187	118
0	4878	38207	117
0	4884	38208	118
0	4885	38226	117
0	4890	38272	118
0	4891	38294	117
0	4896	38336	118
0	4897	38368	117
0	4901	38369	116
0	4905	38389	115
0	4913	38400	116
0	4914	38407	115
0	4918	38409	114
0	4923	38464	115
0	4931	38528	116
0	4932	38550	115
0	4936	38556	114
0	4944	38592	115
0	4945	38653	114
0	4953	38656	115
0	4967	38720	116
0	4968	38741	115
0	4972	38744	114
0	4977	38784	115
0	4978	38812	114
0	4986	38848	115
0	4987	38878	114
0	4992	38912	115
0	4993	38920	114
0	4997	38963	113
0	5002	38976	114
0	5013	39040	115
0	5018	39104	116
0	5022	39168	115
0	5026	39168	116
0	5031	39204	115
0	5039	39232	116
0	5041	39296	117
0	5045	39314	116
0	5054	39360	117
0	5055	39403	116
0	5060	39424	117
0	5067	39488	118
0	5074	39516	117
0	5084	39552	118
0	5085	39574	117
0	5090	39587	116
0	5094	39587	115
0	5099	39616	116
0	5103	39644	115
0	5110	39660	114
0	5115	39680	115
0	5120	39744	116
0	5121	39791	115
0	5126	39808	116
0	5130	39857	115
0	5138	39872	116
0	5139	39892	115
0	5146	39914	114
0	5151	39936	115
0	5152	39981	114
0	5157	40000	115
0	5159	40064	116
0	5160	40097	115
0	5165	40128	116
0	5166	40163	115
0	5170	40182	114
0	5175	40192	115
0	5176	40219	114
0	5181	40256	115
0	5186	40320	116
0	5194	40384	117
0	5198	40427	116
0	5203	40448	117
0	5214	40512	118
0	5216	40576	119
0	5220	40603	118
0	5231	40627	117
0	5239	40640	118
0	5243	40704	119
0	5244	40713	118
0	5248	40730	117
0	5255	40748	116
0	5259	40762	115
0	5263	40768	114
0	5267	40768	115
0	5269	40782	114
0	5280	40832	115
0	5281	40838	114
0	5291	40874	113
0	5299	40896	114
0	5300	40956	113
0	5305	40960	114
0	5309	40979	113
0	5314	41024	114
0	5316	41088	115
0	5317	41099	114
0	5322	41152	115
0	5327	41216	116
0	5332	41280	117
0	5337	41344	118
0	5341	41396	117
0	5346	41408	118
0	5347	41412	117
0	5354	41433	116
0	5362	41472	117
0	5364	41536	118
0	5366	41600	119
0	5367	41613	118
0	5372	41664	119
0	5383	41728	120
0	5386	41746	119
0	5391	41782	118
0	5396	41792	119
0	5398	41856	120
0	5404	41901	119
0	5412	41920	120
0	5413	41938	119
0	5423	41984	120
0	5424	41985	119
0	5433	42000	120
0	5437	42048	121
0	5438	42052	120
0	5448	42112	121
0	5454	42164	120
0	5460	42176	121
0	5466	42240	122
0	5468	42304	123
0	5470	42368	124
0	5480	42432	125
0	5481	42438	124
0	5487	42496	125
0	5492	42548	124
0	5500	42560	125
0	5501	42568	124
0	5506	42580	123
0	5507	42580	122
0	5518	42604	121
0	5524	42624	122
0	5526	42688	123
0	5528	42752	124
0	5529	42757	123
0	5539	42816	124
0	5540	42833	123
0	5550	42880	124
0	5551	42898	123
0	5556	42937	122
0	5562	42944	123
0	5564	43008	124
0	5568	43072	125
0	5569	43085	124
0	5574	43115	123
0	5582	43136	124
0	5583	43190	123
0	5591	43200	124
0	5592	43241	123
0	5598	43264	124
0	5601	43281	123
0	5606	43294	122
0	5610	43318	121
0	5614	43327	120
0	5619	43328	121
0	5620	43377	120
0	5624	43381	119
0	5629	43392	120
0	5630	43452	119
0	5635	43456	120
0	5640	43520	121
0	5649	43574	120
0	5656	43584	121
0	5663	43648	122
0	5665	43712	123
0	5670	43776	124
0	5675	43840	125
0	5685	43904	126
0	5688	43914	125
0	5693	43916	124
0	5700	43942	123
0	5705	43949	122
0	5713	43968	123
0	5719	44032	124
0	5721	44096	125
0	5722	44105	124
0	5730	44160	125
0	5731	44222	124
0	5737	44224	125
0	5740	44244	124
0	5747	44271	123
0	5753	44288	124
0	5754	44324	123
0	5759	44325	122
0	5771	44352	123
0	5775	44416	124
0	5778	44479	123
0	5784	44480	124
0	5785	44539	123
0	5791	44544	124
0	5795	44608	125
0	5796	44672	124
0	5800	44672	125
0	5803	44686	124
0	5808	44710	123
0	5816	44736	124
0	5817	44757	123
0	5824	44776	122
0	5829	44779	121
0	5839	44800	122
0	5845	44864	123
0	5847	44928	124
0	5850	44967	123
0	5856	44992	124
0	5864	45015	123
0	5865	45015	122
0	5877	45056	123
0	5878	45057	122
0	5883	45060	121
0	5891	45120	122
0	5892	45169	121
0	5900	45184	122
0	5905	45217	121
0	5913	45248	122
0	5914	45255	121
0	5922	45312	122
0	5923	45348	121
0	5929	45376	122
0	5935	45440	123
0	5939	45504	124
0	5940	45563	123
0	5946	45568	124
0	5950	45632	125
0	5951	45667	124
0	5957	45696	125
0	5958	45717	124
0	5964	45760	125
0	5966	45824	126
0	5968	45888	127
0	5972	45952	128
0	5973	45970	127
0	5978	45974	126
0	5983	46014	125
0	5989	46016	126
0	5994	46079	125
0	6000	46080	126
0	6001	46086	125
0	6011	46144	126
0	6015	46208	127
0	6019	46272	128
0	6020	46292	127
0	6025	46297	126
0	6033	46336	127
0	6034	46389	126
0	6039	46393	125
0	6045	46400	126
0	6051	46464	127
0	6060	46528	128
0	6063	46567	127
0	6071	46592	128
0	6072	46633	127
0	6078	46656	128
0	6082	46720	129
0	6083	46727	128
0	6088	46741	127
0	6094	46784	128
0	6095	46799	127
0	6101	46848	128
0	6104	46858	127
0	6111	46880	126
0	6119	46912	127
0	6120	46928	126
0	6125	46938	125
0	6134	46952	124
0	6140	46976	125
0	6143	47004	124
0	6151	47040	125
0	6153	47104	126
0	6156	47141	125
0	6161	47162	124
0	6167	47168	125
0	6171	47232	126
0	6172	47284	125
0	6180	47296	126
0	6181	47336	125
0	6189	47360	126
0	6194	47417	125
0	6200	47424	126
0	6204	47488	127
0	6205	47531	126
0	6211	47552	127
0	6212	47603	126
0	6218	47616	127
0	6224	47680	128
0	6225	47693	127
0	6230	47708	126
0	6235	47712	125
0	6242	47736	124
0	6250	47744	125
0	6256	47808	126
0	6258	47872	127
0	6259	47884	126
0	6265	47936	127
0	6271	48000	128
0	6273	48000	129
0	6276	48064	130
0	6277	48068	129
0	6285	48128	130
0	6286	48139	129
0	6293	48165	128
0	6299	48192	129
0	6303	48256	130
0	6312	48320	131
0	6317	48369	130
0	6322	48374	129
0	6328	48384	130
0	6332	48448	131
0	6337	48496	130
0	6343	48512	131
0	6351	48576	132
0	6352	48613	131
0	6358	48640	132
0	6362	48704	133
0	6364	48768	134
0	6366	48832	135
0	6367	48837	134
0	6372	48874	133
0	6378	48896	134
0	6380	48960	135
0	6381	49008	134
0	6387	49024	135
0	6390	49036	134
0	6398	49088	135
0	6401	49143	134
0	6407	49152	135
0	6408	49188	134
0	6416	49216	135
0	6417	49229	134
0	6423	49280	135
0	6424	49284	134
0	6431	49311	133
0	6439	49344	134
0	6440	49375	133
0	6445	49381	132
0	6450	49408	133
0	6455	49472	134
0	6466	49536	135
0	6467	49540	134
0	6474	49555	133
0	6486	49600	134
0	6490	49664	135
0	6491	49715	134
0	6497	49728	135
0	6498	49780	134
0	6506	49792	135
0	6507	49840	134
0	6517	49856	135
0	6520	49901	134
0	6526	49920	135
0	6527	49971	134
0	6533	49984	135
0	6534	49991	134
0	6539	50033	133
0	6547	50048	134
0	6548	50092	133
0	6554	50112	134
0	6555	50120	133
0	6559	50133	132
0	6571	50172	131
0	6572	50172	130
0	6584	50176	131
0	6585	50179	130
0	6594	50228	129
0	6600	50240	130
0	6604	50304	131
0	6607	50333	130
0	6612	50360	129
0	6618	50368	130
0	6619	50417	129
0	6625	50432	130
0	6631	50496	131
0	6637	50560	132
0	6639	50624	133
0	6641	50688	134
0	6642	50689	133
0	6649	50709	132
0	6656	50737	131
0	6662	50752	132
0	6664	50816	133
0	6667	50834	132
0	6673	50880	133
0	6677	50944	134
0	6678	50973	133
0	6689	51008	134
0	6693	51072	135
0	6694	51124	134
0	6699	51129	133
0	6705	51136	134
0	6707	51200	135
0	6715	51264	136
0	6716	51306	135
0	6724	51328	136
0	6725	51370	135
0	6733	51392	136
0	6734	51403	135
0	6742	51456	136
0	6743	51474	135
0	6749	51520	136
0	6753	51584	137
0	6754	51592	136
0	6764	51648	137
0	6768	51712	138
0	6769	51724	137
0	6775	51776	138
0	6776	51805	137
0	6783	51811	136
0	6789	51840	137
0	6790	51848	136
0	6795	51903	135
0	6801	51904	136
0	6802	51962	135
0	6807	51968	136
0	6814	52032	137
0	6820	52096	138
0	6822	52160	139
0	6823	52193	138
0	6828	52212	137
0	6833	52223	136
0	6839	52224	137
0	6845	52288	138
0	6846	52338	137
0	6852	52352	138
0	6853	52361	137
0	6858	52384	136
0	6866	52416	137
0	6867	52422	136
0	6878	52474	135
0	6884	52480	136
0	6893	52544	137
0	6901	52608	138
0	6902	52626	137
0	6907	52639	136
0	6913	52672	137
0	6919	52736	138
0	6920	52759	137
0	6926	52800	138
0	6927	52801	137
0	6932	52833	136
0	6938	52864	137
0	6939	52871	136
0	6946	52909	135
0	6951	52928	136
0	6952	52953	135
0	6956	52986	134
0	6961	52992	135
0	6963	53056	136
0	6964	53086	135
0	6969	53120	136
0	6983	53184	137
0	6987	53248	138
0	6988	53259	137
0	6996	53312	138
0	6997	53321	137
0	7005	53376	138
0	7006	53432	137
0	7012	53440	138
0	7014	53504	139
0	7015	53553	138
0	7020	53568	139
0	7025	53632	140
0	7027	53696	141
0	7028	53703	140
0	7032	53719	139
0	7043	53760	140
0	7049	53824	141
0	7050	53843	140
0	7056	53844	139
0	7063	53888	140
0	7067	53952	141
0	7068	53995	140
0	7077	54000	141
0	7081	54016	142
0	7084	54028	141
0	7096	54076	140
0	7102	54080	141
0	7105	54117	140
0	7117	54144	141
0	7125	54208	142
0	7129	54272	143
0	7130	54325	142
0	7136	54336	143
0	7138	54400	144
0	7139	54436	143
0	7145	54464	144
0	7147	54528	145
0	7149	54592	146
0	7150	54618	145
0	7158	54656	146
0	7159	54713	145
0	7167	54720	144
0	7168	54720	145
0	7173	54769	144
0	7179	54784	145
0	7180	54809	144
0	7185	54848	145
0	7186	54856	144
0	7190	54912	143
0	7194	54912	144
0	7197	54976	145
0	7201	55031	144
0	7206	55040	145
0	7207	55047	144
0	7211	55099	143
0	7216	55104	144
0	7217	55127	143
0	7221	55157	142
0	7229	55168	143
0	7230	55186	142
0	7238	55232	143
0	7242	55247	142
0	7247	55296	143
0	7248	55347	142
0	7253	55360	143
0	7254	55391	142
0	7268	55424	143
0	7282	55488	144
0	7286	55540	143
0	7287	55540	142
0	7295	55552	143
0	7296	55559	142
0	7300	55609	141
0	7311	55616	140
0	7312	55616	141
0	7329	55680	142
0	7330	55689	141
0	7335	55744	142
0	7336	55767	141
0	7340	55770	140
0	7348	55808	141
0	7353	55872	142
0	7354	55879	141
0	7358	55885	140
0	7366	55890	139
0	7371	55936	140
0	7374	55974	139
0	7378	55997	138
0	7383	56000	139
0	7387	56053	138
0	7392	56064	139
0	7396	56084	138
0	7401	56128	139
0	7409	56192	140
0	7417	56256	141
0	7422	56320	142
0	7423	56353	141
0	7431	56384	142
0	7432	56412	141
0	7436	56429	140
0	7447	56448	141
0	7449	56512	142
0	7451	56576	143
0	7455	56599	142
0	7460	56640	143
0	7464	56692	142
0	7469	56704	143
0	7473	56763	142
0	7478	56768	143
0	7483	56832	144
0	7484	56858	143
0	7488	56870	142
0	7493	56896	143
0	7497	56934	142
0	7508	56960	143
0	7514	57003	142
0	7524	57024	143
0	7527	57068	142
0	7535	57088	143
0	7545	57152	144
0	7547	57216	145
0	7548	57256	144
0	7556	57280	145
0	7558	57344	146
0	7560	57408	147
0	7561	57423	146
0	7566	57430	145
0	7572	57472	146
0	7576	57536	147
0	7577	57547	146
0	7582	57582	145
0	7588	57600	146
0	7592	57664	147
0	7593	57671	146
0	7603	57728	147
0	7607	57792	148
0	7609	57856	149
0	7610	57878	148
0	7616	57920	149
0	7617	57967	148
0	7625	57984	149
0	7627	58048	150
0	7631	58112	151
0	7632	58120	150
0	7638	58176	151
0	7641	58202	150
0	7646	58224	149
0	7652	58240	148
0	7653	58240	149
0	7665	58304	150
0	7667	58368	151
0	7668	58372	150
0	7673	58381	149
0	7678	58425	148
0	7684	58432	149
0	7688	58496	150
0	7692	58505	149
0	7698	58560	150
0	7700	58624	151
0	7710	58688	152
0	7716	58752	153
0	7717	58800	152
0	7725	58816	153
0	7726	58827	152
0	7731	58862	151
0	7737	58880	152