version 3
run General-8-20240513-00:17:03-20028
attr configname General
attr datetime 20240513-00:17:03
attr datetimef 20240513-001703
attr experiment General
attr inifile omnetpp.ini
attr iterationvars ""
attr iterationvarsd ""
attr iterationvarsf ""
attr measurement ""
attr network AirportControl
attr processid 20028
attr repetition 8
attr replication #8
attr resultdir results
attr runnumber 8
attr seedset 8
config network AirportControl
config repeat 10
config simtime-resolution s
config sim-time-limit 1440min
config **.PrioT_PCT.jobType 0
config **.PrioT_PCF.jobType 1
config **.PrioF_PCT.jobType 2
config **.PrioF_PCF.jobType 3
config **.PrioT_PCT.probArrival 0.04
config **.PrioT_PCF.probArrival 0.01
config **.PrioF_PCT.probArrival 0.01
config **.PrioF_PCF.probArrival 0.94
config **.PrioT_PCT.interarrivalRateRush 0.4min
config **.PrioT_PCF.interarrivalRateRush 0.4min
config **.PrioF_PCT.interarrivalRateRush 0.4min
config **.PrioF_PCF.interarrivalRateRush 0.4min
config **.PrioF_PCF.interarrivalRateNormal 1min
config **.PrioT_PCT.interarrivalRateNormal 1min
config **.PrioF_PCT.interarrivalRateNormal 1min
config **.PrioT_PCF.interarrivalRateNormal 1min
config **.PrioF_PCF.numberOfPeaks 4
config **.PrioF_PCT.numberOfPeaks 4
config **.PrioT_PCF.numberOfPeaks 4
config **.PrioT_PCT.numberOfPeaks 4
config **.PrioF_PCF.durationOfPeaks 150min
config **.PrioF_PCT.durationOfPeaks 150min
config **.PrioT_PCF.durationOfPeaks 150min
config **.PrioT_PCT.durationOfPeaks 150min
config **.PrioT_Server.serviceTime exponential(3min)
config **.PrioF_Server3.serviceTime exponential(5min)
config **.PrioF_Server2.serviceTime exponential(5min)
config **.PrioF_Server1.serviceTime exponential(5min)
config **.PrioF_Server0.serviceTime exponential(5min)
config **.NoPC_Server0.serviceTime exponential(3min)
config **.NoPC_Server3.serviceTime exponential(3min)
config **.NoPC_Server2.serviceTime exponential(3min)
config **.NoPC_Server1.serviceTime exponential(3min)
config **.PC_Server0.serviceTime exponential(1min)
config **.PC_Server1.serviceTime exponential(1min)

vector 0 AirportControl.PrioF_PQ queueLength:vector ETV
attr interpolationmode sample-hold
attr recordingmode vector
attr title "queue length"
vector 1 AirportControl.PrioT_PQ queueLength:vector ETV
attr interpolationmode sample-hold
attr recordingmode vector
attr title "queue length"
vector 2 AirportControl.NoPC_PQ queueLength:vector ETV
attr interpolationmode sample-hold
attr recordingmode vector
attr title "queue length"
vector 3 AirportControl.PC_PQ queueLength:vector ETV
attr interpolationmode sample-hold
attr recordingmode vector
attr title "queue length"
vector 4 AirportControl.sink lifeTime:vector ETV
attr interpolationmode none
attr recordingmode vector
attr title "lifetime of arrived jobs"
attr unit s
0	0	0	0
0	28	256	1
0	29	270	0
0	37	320	1
0	46	384	2
0	47	419	1
0	53	448	2
0	59	512	3
0	63	576	4
0	65	640	5
0	66	674	4
0	71	703	3
0	77	704	4
0	83	768	5
0	84	779	4
0	89	828	3
0	95	832	4
0	99	896	5
0	100	925	4
0	106	960	5
0	107	974	4
0	113	1024	5
0	114	1038	4
0	121	1071	3
0	131	1088	4
0	135	1152	5
0	136	1160	4
0	142	1216	5
0	148	1280	6
0	149	1327	5
0	155	1344	6
0	156	1361	5
0	163	1403	4
0	169	1408	5
0	170	1412	4
0	177	1429	3
0	184	1449	2
0	192	1472	3
0	193	1486	2
0	203	1525	1
0	208	1527	0
0	213	1536	1
0	225	1586	0
0	231	1600	1
0	237	1664	2
0	238	1701	1
0	244	1728	2
0	247	1736	1
0	253	1792	2
0	257	1856	3
0	258	1863	2
0	266	1920	3
0	270	1984	4
0	272	2048	5
0	276	2112	6
0	278	2176	7
0	280	2240	8
0	282	2304	9
0	284	2368	10
0	285	2380	9
0	290	2389	8
0	296	2432	9
0	301	2454	8
0	307	2496	9
0	308	2519	8
0	314	2560	9
0	315	2598	8
0	323	2624	9
0	326	2669	8
0	332	2688	9
0	338	2752	10
0	339	2785	9
0	347	2816	10
0	349	2880	11
0	351	2944	12
0	352	2952	11
0	357	2955	10
0	368	3008	11
0	369	3046	10
0	377	3072	11
0	378	3118	10
0	384	3136	11
0	394	3200	12
0	395	3242	11
0	401	3264	12
0	405	3328	13
0	407	3392	14
0	408	3432	13
0	413	3436	12
0	420	3439	11
0	425	3442	10
0	433	3456	11
0	437	3520	12
0	439	3584	13
0	442	3618	12
0	448	3648	13
0	452	3712	14
0	453	3718	13
0	458	3730	12
0	466	3776	13
0	470	3840	14
0	473	3881	13
0	479	3904	14
0	480	3907	13
0	481	3907	12
0	490	3944	11
0	498	3968	12
0	499	3993	11
0	500	3993	10
0	514	4032	11
0	516	4096	12
0	520	4160	13
0	521	4203	12
0	526	4223	11
0	532	4224	12
0	538	4288	13
0	542	4352	14
0	543	4378	13
0	551	4416	14
0	553	4480	15
0	560	4544	16
0	565	4597	15
0	571	4608	16
0	575	4672	17
0	579	4736	18
0	580	4784	17
0	586	4800	18
0	588	4864	19
0	589	4869	18
0	595	4928	19
0	599	4992	20
0	601	5056	21
0	602	5065	20
0	609	5083	19
0	616	5086	18
0	623	5107	17
0	628	5109	16
0	634	5120	17
0	640	5184	18
0	641	5239	17
0	647	5248	18
0	648	5256	17
0	653	5278	16
0	654	5278	15
0	665	5301	14
0	670	5312	15
0	672	5376	16
0	676	5411	15
0	681	5440	16
0	682	5482	15
0	687	5504	16
0	691	5552	15
0	695	5566	14
0	700	5568	15
0	701	5590	14
0	709	5632	15
0	710	5687	14
0	714	5689	13
0	719	5696	14
0	720	5697	13
0	724	5731	12
0	732	5760	13
0	740	5824	14
0	741	5831	13
0	749	5888	14
0	753	5903	13
0	761	5952	14
0	772	6000	15
0	776	6016	16
0	780	6048	15
0	785	6080	16
0	789	6094	15
0	796	6131	14
0	801	6144	15
0	806	6208	16
0	809	6263	15
0	815	6272	16
0	826	6336	17
0	827	6356	16
0	836	6388	15
0	845	6400	16
0	849	6435	15
0	855	6464	16
0	860	6526	15
0	866	6528	16
0	869	6541	15
0	875	6592	16
0	879	6656	17
0	880	6678	16
0	885	6683	15
0	892	6720	16
0	894	6728	15
0	901	6784	14
0	905	6784	15
0	908	6787	14
0	920	6848	15
0	922	6912	16
0	923	6958	15
0	929	6976	16
0	932	7031	15
0	937	7034	14
0	943	7040	15
0	947	7104	16
0	950	7167	15
0	956	7168	16
0	960	7232	17
0	961	7244	16
0	966	7253	15
0	972	7296	16
0	976	7360	17
0	980	7424	18
0	982	7488	19
0	991	7552	20
0	997	7616	21
0	999	7680	22
0	1003	7744	23
0	1004	7756	22
0	1010	7808	23
0	1011	7813	22
0	1017	7872	23
0	1019	7936	24
0	1021	8000	25
0	1027	8064	26
0	1028	8077	25
0	1034	8128	26
0	1036	8192	27
0	1038	8256	28
0	1039	8275	27
0	1044	8305	26
0	1050	8320	27
0	1056	8384	28
0	1058	8448	29
0	1059	8472	28
0	1065	8512	29
0	1066	8513	28
0	1070	8513	27
0	1083	8576	28
0	1085	8640	29
0	1086	8658	28
0	1092	8704	29
0	1096	8768	30
0	1097	8786	29
0	1105	8832	30
0	1106	8859	29
0	1114	8896	30
0	1115	8947	29
0	1121	8960	30
0	1126	9024	31
0	1132	9088	32
0	1135	9138	31
0	1140	9139	30
0	1148	9152	31
0	1152	9216	32
0	1156	9280	33
0	1157	9288	32
0	1167	9344	33
0	1168	9364	32
0	1173	9383	31
0	1178	9389	30
0	1184	9408	31
0	1188	9472	32
0	1194	9536	33
0	1195	9599	32
0	1201	9600	33
0	1202	9651	32
0	1207	9663	31
0	1213	9664	32
0	1216	9698	31
0	1222	9728	32
0	1228	9792	33
0	1229	9826	32
0	1234	9836	31
0	1242	9856	32
0	1243	9864	31
0	1251	9920	32
0	1254	9968	31
0	1260	9984	32
0	1261	10004	31
0	1267	10048	32
0	1273	10112	33
0	1276	10141	32
0	1283	10162	31
0	1289	10176	32
0	1290	10177	31
0	1297	10224	30
0	1302	10235	29
0	1308	10240	30
0	1312	10304	31
0	1315	10341	30
0	1323	10368	31
0	1327	10432	32
0	1328	10462	31
0	1333	10468	30
0	1338	10495	29
0	1344	10496	30
0	1351	10560	31
0	1352	10569	30
0	1357	10577	29
0	1364	10604	28
0	1373	10614	27
0	1378	10624	28
0	1379	10673	27
0	1389	10688	28
0	1394	10752	29
0	1395	10771	28
0	1403	10816	29
0	1407	10852	28
0	1418	10880	29
0	1419	10888	28
0	1424	10890	27
0	1430	10944	28
0	1431	10989	27
0	1436	11001	26
0	1441	11008	27
0	1442	11058	26
0	1446	11070	25
0	1451	11072	26
0	1456	11136	27
0	1457	11166	26
0	1462	11200	27
0	1463	11220	26
0	1468	11264	27
0	1469	11297	26
0	1473	11298	25
0	1484	11328	26
0	1492	11392	27
0	1497	11456	28
0	1502	11520	29
0	1505	11543	28
0	1512	11570	27
0	1518	11584	28
0	1521	11632	27
0	1526	11641	26
0	1531	11648	27
0	1532	11663	26
0	1536	11709	25
0	1544	11712	26
0	1554	11776	27
0	1555	11793	26
0	1560	11825	25
0	1565	11840	26
0	1572	11904	27
0	1575	11933	26
0	1581	11968	27
0	1588	12000	28
0	1592	12032	29
0	1593	12092	28
0	1599	12096	29
0	1600	12100	28
0	1605	12134	27
0	1612	12159	26
0	1617	12160	27
0	1624	12224	28
0	1628	12288	29
0	1629	12300	28
0	1634	12306	27
0	1642	12352	28
0	1655	12416	29
0	1659	12480	30
0	1665	12544	31
0	1667	12608	32
0	1668	12617	31
0	1678	12672	32
0	1680	12736	33
0	1682	12800	34
0	1684	12864	35
0	1686	12928	36
0	1688	12992	37
0	1689	13003	36
0	1694	13046	35
0	1700	13056	36
0	1706	13120	37
0	1708	13184	38
0	1710	13248	39
0	1711	13275	38
0	1716	13303	37
0	1722	13312	38
0	1724	13376	39
0	1725	13411	38
0	1731	13440	39
0	1736	13504	40
0	1743	13541	39
0	1749	13568	40
0	1753	13632	41
0	1756	13653	40
0	1762	13696	41
0	1763	13709	40
0	1771	13760	41
0	1775	13824	42
0	1776	13834	41
0	1781	13850	40
0	1786	13872	39
0	1791	13888	40
0	1800	13952	41
0	1802	14016	42
0	1803	14044	41
0	1811	14080	42
0	1813	14144	43
0	1814	14147	42
0	1819	14194	41
0	1825	14208	42
0	1830	14255	41
0	1838	14272	42
0	1839	14319	41
0	1845	14336	42
0	1846	14379	41
0	1852	14400	42
0	1857	14429	41
0	1862	14434	40
0	1870	14464	41
0	1871	14470	40
0	1876	14519	39
0	1881	14528	40
0	1888	14592	41
0	1889	14617	40
0	1899	14656	41
0	1903	14720	42
0	1904	14725	41
0	1909	14726	40
0	1914	14729	39
0	1922	14784	40
0	1923	14786	39
0	1928	14810	38
0	1932	14811	37
0	1940	14848	38
0	1941	14860	37
0	1949	14912	38
0	1956	14976	39
0	1960	15005	38
0	1967	15030	37
0	1973	15040	38
0	1976	15058	37
0	1982	15104	38
0	1983	15127	37
0	1995	15168	38
0	1997	15232	39
0	2000	15267	38
0	2005	15296	39
0	2011	15354	38
0	2019	15360	39
0	2023	15424	40
0	2025	15488	41
0	2026	15491	40
0	2034	15552	41
0	2040	15616	42
0	2041	15671	41
0	2047	15680	42
0	2048	15734	41
0	2054	15744	42
0	2056	15808	43
0	2062	15872	44
0	2064	15936	45
0	2065	15999	44
0	2071	16000	45
0	2073	16064	46
0	2074	16093	45
0	2080	16128	46
0	2083	16174	45
0	2084	16174	44
0	2094	16192	45
0	2097	16233	44
0	2103	16256	45
0	2105	16320	46
0	2111	16384	47
0	2113	16448	48
0	2118	16512	49
0	2124	16576	50
0	2128	16640	51
0	2130	16704	52
0	2131	16738	51
0	2136	16768	50
0	2140	16768	51
0	2143	16793	50
0	2148	16808	49
0	2153	16832	50
0	2160	16896	51
0	2162	16960	52
0	2168	17024	53
0	2172	17088	54
0	2173	17097	53
0	2178	17119	52
0	2186	17152	53
0	2189	17179	52
0	2194	17199	51
0	2200	17216	52
0	2202	17280	53
0	2205	17326	52
0	2210	17338	51
0	2216	17344	52
0	2220	17408	53
0	2221	17431	52
0	2228	17445	51
0	2233	17453	50
0	2243	17472	51
0	2246	17516	50
0	2252	17536	51
0	2254	17600	52
0	2256	17664	53
0	2257	17726	52
0	2263	17728	53
0	2264	17768	52
0	2272	17792	53
0	2273	17803	52
0	2281	17856	53
0	2282	17876	52
0	2288	17920	53
0	2289	17939	52
0	2297	17984	53
0	2302	18000	54
0	2305	18012	53
0	2310	18048	54
0	2311	18072	53
0	2315	18074	52
0	2326	18112	53
0	2330	18118	52
0	2338	18176	53
0	2347	18240	54
0	2351	18304	55
0	2355	18368	56
0	2361	18432	57
0	2364	18443	56
0	2369	18448	55
0	2376	18489	54
0	2382	18496	55
0	2384	18560	56
0	2385	18596	55
0	2393	18624	56
0	2394	18632	55
0	2409	18674	54
0	2414	18684	53
0	2420	18688	54
0	2421	18708	53
0	2426	18719	52
0	2431	18721	51
0	2440	18750	50
0	2446	18752	51
0	2448	18816	52
0	2451	18856	51
0	2461	18880	52
0	2462	18912	51
0	2468	18944	52
0	2470	19008	53
0	2471	19066	52
0	2478	19071	51
0	2484	19072	52
0	2486	19136	53
0	2489	19189	52
0	2495	19200	53
0	2500	19219	52
0	2505	19240	51
0	2511	19264	52
0	2512	19285	51
0	2520	19328	52
0	2526	19392	53
0	2530	19456	54
0	2535	19520	55
0	2536	19541	54
0	2542	19584	55
0	2543	19596	54
0	2549	19648	55
0	2550	19664	54
0	2561	19709	53
0	2566	19712	54
0	2577	19776	55
0	2578	19810	54
0	2586	19840	55
0	2587	19865	54
0	2593	19904	55
0	2599	19968	56
0	2601	20032	57
0	2602	20081	56
0	2608	20096	57
0	2610	20160	58
0	2614	20224	59
0	2615	20234	58
0	2621	20288	59
0	2622	20308	58
0	2629	20327	57
0	2635	20352	58
0	2637	20416	59
0	2640	20436	58
0	2646	20480	59
0	2647	20482	58
0	2652	20529	57
0	2660	20544	58
0	2664	20608	59
0	2667	20663	58
0	2673	20672	59
0	2675	20736	60
0	2678	20772	59
0	2686	20800	60
0	2687	20837	59
0	2693	20864	60
0	2697	20928	61
0	2698	20966	60
0	2706	20992	61
0	2710	21042	60
0	2716	21056	61
0	2717	21108	60
0	2722	21113	59
0	2732	21120	60
0	2740	21184	61
0	2742	21248	62
0	2743	21274	61
0	2748	21286	60
0	2756	21312	61
0	2758	21376	62
0	2759	21400	61
0	2765	21440	62
0	2766	21448	61
0	2771	21504	62
0	2776	21568	63
0	2777	21583	62
0	2784	21621	61
0	2789	21632	62
0	2790	21651	61
0	2798	21696	62
0	2799	21697	61
0	2807	21760	62
0	2808	21767	61
0	2815	21803	60
0	2819	21815	59
0	2827	21824	60
0	2829	21888	61
0	2836	21922	60
0	2844	21952	61
0	2850	22016	62
0	2851	22020	61
0	2857	22046	60
0	2863	22055	59
0	2869	22080	60
0	2873	22144	61
0	2875	22208	62
0	2879	22272	63
0	2883	22336	64
0	2887	22400	65
0	2889	22464	66
0	2894	22528	67
0	2902	22592	68
0	2903	22651	67
0	2909	22656	68
0	2911	22720	69
0	2913	22784	70
0	2915	22848	71
0	2919	22912	72
0	2920	22962	71
0	2925	22969	70
0	2931	22976	71
0	2934	23001	70
0	2944	23040	71
0	2945	23058	70
0	2950	23060	69
0	2958	23104	70
0	2959	23143	69
0	2967	23168	70
0	2969	23232	71
0	2970	23274	70
0	2975	23284	69
0	2981	23296	70
0	2983	23360	71
0	2984	23392	70
0	2990	23424	71
0	2991	23428	70
0	2996	23488	71
0	2997	23514	70
0	3004	23531	69
0	3012	23552	70
0	3016	23573	69
0	3021	23616	70
0	3025	23641	69
0	3030	23680	70
0	3037	23744	71
0	3043	23808	72
0	3045	23872	73
0	3046	23893	72
0	3051	23928	71
0	3057	23936	72
0	3063	24000	73
0	3065	24000	74
0	3067	24028	73
0	3072	24041	72
0	3082	24064	73
0	3086	24128	74
0	3087	24187	73
0	3093	24192	74
0	3094	24193	73
0	3106	24235	72
0	3114	24256	73
0	3121	24298	72
0	3129	24320	73
0	3135	24384	74
0	3136	24415	73
0	3141	24428	72
0	3147	24448	73
0	3152	24491	72
0	3157	24502	71
0	3163	24512	72
0	3165	24576	73
0	3167	24640	74
0	3168	24643	73
0	3180	24704	74
0	3184	24768	75
0	3185	24822	74
0	3191	24832	75
0	3195	24896	76
0	3197	24960	77
0	3198	24997	76
0	3204	25024	77
0	3206	25088	78
0	3207	25103	77
0	3212	25130	76
0	3218	25152	77
0	3221	25175	76
0	3229	25216	77
0	3230	25241	76
0	3239	25272	75
0	3245	25280	76
0	3249	25344	77
0	3251	25408	78
0	3252	25431	77
0	3257	25469	76
0	3263	25472	77
0	3264	25486	76
0	3268	25493	75
0	3282	25536	76
0	3283	25599	75
0	3288	25600	76
0	3299	25664	77
0	3306	25724	76
0	3312	25728	77
0	3316	25792	78
0	3317	25834	77
0	3325	25856	78
0	3327	25920	79
0	3329	25984	80
0	3331	26048	81
0	3333	26112	82
0	3335	26176	83
0	3337	26240	84
0	3338	26248	83
0	3343	26260	82
0	3351	26304	83
0	3354	26345	82
0	3360	26368	83
0	3361	26380	82
0	3366	26383	81
0	3371	26401	80
0	3375	26427	79
0	3380	26432	80
0	3385	26496	81
0	3392	26560	82
0	3396	26624	83
0	3398	26688	84
0	3401	26733	83
0	3407	26752	84
0	3412	26782	83
0	3418	26816	84
0	3419	26858	83
0	3425	26880	84
0	3429	26944	85
0	3430	26992	84
0	3441	27008	85
0	3447	27072	86
0	3453	27136	87
0	3455	27200	88
0	3456	27244	87
0	3464	27264	88
0	3465	27304	87
0	3471	27328	88
0	3473	27392	89
0	3474	27422	88
0	3480	27456	89
0	3481	27481	88
0	3486	27487	87
0	3491	27489	86
0	3496	27520	87
0	3498	27584	88
0	3503	27648	89
0	3504	27653	88
0	3516	27712	89
0	3520	27776	90
0	3521	27814	89
0	3526	27815	88
0	3534	27840	89
0	3536	27904	90
0	3537	27933	89
0	3543	27968	90
0	3544	27979	89
0	3551	28011	88
0	3556	28017	87
0	3561	28032	88
0	3562	28040	87
0	3570	28096	88
0	3576	28114	87
0	3581	28141	86
0	3586	28160	87
0	3591	28224	88
0	3594	28237	87
0	3600	28288	88
0	3606	28352	89
0	3609	28416	88
0	3613	28416	89
0	3617	28480	90
0	3618	28499	89
0	3627	28544	90
0	3631	28608	91
0	3635	28672	92
0	3636	28685	91
0	3648	28736	92
0	3651	28758	91
0	3659	28800	92
0	3660	28852	91
0	3668	28864	92
0	3670	28928	93
0	3673	28951	92
0	3678	28981	91
0	3686	28992	92
0	3688	29056	93
0	3690	29120	94
0	3691	29135	93
0	3696	29163	92
0	3701	29177	91
0	3707	29184	92
0	3713	29248	93
0	3717	29312	94
0	3721	29376	95
0	3723	29440	96
0	3724	29462	95
0	3729	29480	94
0	3735	29504	95
0	3736	29523	94
0	3743	29565	93
0	3749	29568	94
0	3750	29577	93
0	3756	29632	94
0	3761	29677	93
0	3766	29680	92
0	3772	29696	93
0	3773	29698	92
0	3777	29760	91
0	3781	29760	92
0	3786	29822	91
0	3791	29824	92
0	3792	29826	91
0	3800	29888	92
0	3801	29906	91
0	3805	29908	90
0	3816	29952	91
0	3817	29970	90
0	3824	29980	89
0	3832	30000	90
0	3839	30016	91
0	3840	30023	90
0	3851	30080	91
0	3853	30144	92
0	3857	30180	91
0	3865	30208	92
0	3867	30272	93
0	3868	30281	92
0	3872	30283	91
0	3877	30336	92
0	3894	30400	93
0	3897	30451	92
0	3903	30464	93
0	3906	30477	92
0	3913	30525	91
0	3919	30528	92
0	3927	30592	93
0	3931	30656	94
0	3932	30689	93
0	3936	30689	92
0	3947	30720	93
0	3948	30767	92
0	3954	30784	93
0	3957	30827	92
0	3962	30847	91
0	3968	30848	92
0	3970	30912	93
0	3971	30917	92
0	3978	30975	91
0	3983	30976	90
0	3984	30976	91
0	3995	31040	92
0	3996	31045	91
0	4000	31077	90
0	4005	31104	91
0	4010	31168	92
0	4012	31232	93
0	4023	31296	94
0	4026	31332	93
0	4032	31360	94
0	4033	31364	93
0	4039	31424	94
0	4041	31488	95
0	4046	31552	96
0	4054	31616	97
0	4057	31669	96
0	4063	31680	97
0	4067	31744	98
0	4069	31808	99
0	4072	31844	98
0	4077	31866	97
0	4083	31872	98
0	4088	31896	97
0	4096	31936	98
0	4098	32000	99
0	4099	32042	98
0	4105	32064	99
0	4106	32106	98
0	4114	32128	99
0	4115	32153	98
0	4123	32192	99
0	4124	32217	98
0	4131	32248	97
0	4137	32256	98
0	4138	32257	97
0	4144	32320	98
0	4145	32352	97
0	4155	32384	98
0	4156	32385	97
0	4161	32419	96
0	4171	32448	97
0	4172	32451	96
0	4177	32461	95
0	4183	32512	96
0	4184	32521	95
0	4192	32576	96
0	4200	32640	97
0	4201	32673	96
0	4207	32704	97
0	4208	32721	96
0	4213	32766	95
0	4219	32768	96
0	4222	32800	95
0	4232	32832	96
0	4237	32870	95
0	4242	32892	94
0	4248	32896	95
0	4250	32960	96
0	4251	32995	95
0	4260	33024	96
0	4266	33088	97
0	4268	33152	98
0	4270	33216	99
0	4274	33280	100
0	4275	33291	99
0	4281	33344	100
0	4285	33408	101
0	4286	33441	100
0	4291	33460	99
0	4297	33472	100
0	4300	33478	99
0	4310	33536	98
0	4311	33536	99
0	4316	33542	98
0	4321	33556	97
0	4333	33600	98
0	4337	33664	99
0	4338	33690	98
0	4346	33728	99
0	4348	33792	100
0	4351	33832	99
0	4357	33856	100
0	4359	33920	101
0	4360	33948	100
0	4366	33984	101
0	4368	34048	102
0	4374	34112	103
0	4375	34126	102
0	4382	34142	101
0	4388	34176	102
0	4389	34180	101
0	4394	34184	100
0	4399	34190	99
0	4403	34190	98
0	4411	34240	99
0	4413	34304	100
0	4414	34314	99
0	4424	34340	98
0	4432	34368	99
0	4436	34432	100
0	4440	34496	101
0	4444	34535	100
0	4454	34560	101
0	4460	34624	102
0	4461	34652	101
0	4466	34662	100
0	4472	34688	101
0	4473	34691	100
0	4477	34699	99
0	4484	34746	98
0	4489	34752	99
0	4497	34816	100
0	4498	34823	99
0	4502	34840	98
0	4510	34880	99
0	4519	34944	100
0	4523	35008	101
0	4524	35045	100
0	4530	35072	101
0	4531	35112	100
0	4537	35136	101
0	4539	35200	102
0	4542	35260	101
0	4548	35264	102
0	4549	35303	101
0	4555	35328	102
0	4558	35371	101
0	4563	35376	100
0	4568	35392	101
0	4570	35408	100
0	4579	35454	99
0	4584	35456	100
0	4588	35504	99
0	4593	35520	100
0	4597	35547	99
0	4601	35555	98
0	4606	35584	99
0	4608	35648	100
0	4613	35712	101
0	4615	35776	102
0	4625	35824	101
0	4631	35840	102
0	4634	35849	101
0	4641	35893	100
0	4647	35904	101
0	4648	35917	100
0	4654	35968	101
0	4661	36000	102
0	4664	36031	101
0	4670	36032	102
0	4674	36096	103
0	4675	36117	102
0	4681	36160	103
0	4685	36224	104
0	4686	36235	103
0	4692	36288	104
0	4697	36322	103
0	4703	36352	104
0	4704	36356	103
0	4710	36371	102
0	4722	36416	103
0	4725	36465	102
0	4735	36480	103
0	4736	36507	102
0	4746	36544	103
0	4749	36567	102
0	4756	36600	101
0	4762	36608	102
0	4763	36611	101
0	4770	36648	100
0	4778	36672	101
0	4779	36677	100
0	4783	36680	99
0	4788	36691	98
0	4793	36736	99
0	4795	36800	100
0	4802	36864	101
0	4804	36928	102
0	4805	36976	101
0	4810	36992	102
0	4811	37025	101
0	4815	37051	100
0	4820	37056	101
0	4824	37110	100
0	4831	37115	99
0	4836	37120	100
0	4844	37184	101
0	4845	37194	100
0	4850	37248	101
0	4852	37312	102
0	4857	37376	103
0	4858	37385	102
0	4862	37390	101
0	4870	37440	102
0	4874	37464	101
0	4888	37504	102
0	4892	37530	101
0	4899	37534	100
0	4907	37568	101
0	4910	37594	100
0	4920	37632	101
0	4922	37696	102
0	4930	37760	103
0	4931	37772	102
0	4937	37824	103
0	4941	37888	104
0	4942	37917	103
0	4948	37952	104
0	4951	37995	103
0	4957	38016	104
0	4961	38080	105
0	4962	38134	104
0	4968	38144	105
0	4969	38156	104
0	4981	38208	105
0	4982	38262	104
0	4990	38272	105
0	4992	38336	106
0	4995	38387	105
0	5001	38400	106
0	5002	38428	105
0	5009	38463	104
0	5015	38464	105
0	5016	38470	104
0	5022	38528	105
0	5027	38587	104
0	5032	38588	103
0	5038	38592	104
0	5040	38656	105
0	5041	38696	104
0	5046	38699	103
0	5054	38720	104
0	5057	38739	103
0	5062	38757	102
0	5066	38764	101
0	5071	38784	102
0	5075	38803	101
0	5080	38848	102
0	5084	38912	101
0	5088	38912	102
0	5097	38976	103
0	5104	39040	104
0	5110	39104	105
0	5111	39115	104
0	5116	39137	103
0	5122	39168	104
0	5126	39232	105
0	5127	39234	104
0	5134	39270	103
0	5146	39296	104
0	5148	39360	105
0	5149	39423	104
0	5157	39424	105
0	5159	39488	106
0	5164	39502	105
0	5171	39548	104
0	5177	39552	105
0	5181	39616	106
0	5182	39622	105
0	5190	39680	106
0	5191	39703	105
0	5197	39744	106
0	5200	39767	105
0	5205	39768	104
0	5215	39808	105
0	5216	39827	104
0	5222	39872	105
0	5224	39936	106
0	5227	39977	105
0	5233	40000	106
0	5235	40064	107
0	5237	40128	108
0	5241	40192	109
0	5242	40215	108
0	5247	40225	107
0	5255	40256	108
0	5261	40320	109
0	5263	40384	110
0	5264	40412	109
0	5269	40417	108
0	5275	40448	109
0	5281	40508	108
0	5287	40512	109
0	5288	40516	108
0	5296	40576	109
0	5297	40609	108
0	5303	40640	109
0	5313	40704	110
0	5315	40768	111
0	5316	40773	110
0	5324	40832	111
0	5325	40844	110
0	5333	40896	111
0	5335	40960	112
0	5339	41024	113
0	5340	41048	112
0	5346	41088	113
0	5349	41134	112
0	5357	41152	113
0	5358	41163	112
0	5364	41216	113
0	5365	41240	112
0	5371	41280	113
0	5374	41344	112
0	5378	41344	113
0	5381	41360	112
0	5387	41408	113
0	5390	41459	112
0	5396	41472	113
0	5400	41536	114
0	5401	41581	113
0	5408	41598	112
0	5414	41600	113
0	5417	41628	112
0	5422	41643	111
0	5432	41664	112
0	5435	41699	111
0	5444	41715	110
0	5450	41728	111
0	5451	41762	110
0	5456	41765	109
0	5462	41792	110
0	5468	41856	111
0	5469	41860	110
0	5474	41882	109
0	5480	41920	110
0	5481	41962	109
0	5489	41984	110
0	5496	42000	111
0	5500	42048	112
0	5503	42074	111
0	5509	42112	112
0	5513	42176	113
0	5516	42212	112
0	5521	42218	111
0	5526	42228	110
0	5532	42240	111
0	5537	42253	110
0	5545	42304	111
0	5547	42368	112
0	5553	42432	113
0	5562	42496	114
0	5564	42560	115
0	5565	42577	114
0	5573	42624	115
0	5579	42688	116
0	5580	42714	115
0	5588	42752	116
0	5589	42768	115
0	5597	42816	116
0	5598	42830	115
0	5606	42880	116
0	5610	42944	117
0	5611	42964	116
0	5617	43008	117
0	5621	43072	118
0	5623	43136	119
0	5624	43172	118
0	5630	43200	119
0	5631	43252	118
0	5637	43264	119
0	5639	43328	120
0	5641	43392	121
0	5642	43420	120
0	5647	43423	119
0	5653	43456	120
0	5654	43479	119
0	5658	43490	118
0	5669	43520	119
0	5670	43529	118
0	5681	43584	119
0	5682	43591	118
0	5691	43629	117
0	5697	43648	118
0	5698	43650	117
0	5702	43677	116
0	5709	43697	115
0	5714	43712	116
0	5718	43751	115
0	5729	43776	116
0	5733	43840	117
0	5736	43856	116
0	5741	43868	115
0	5749	43904	116
0	5750	43940	115
0	5755	43947	114
0	5764	43968	115
0	5772	44014	114
0	5778	44032	115
0	5782	44096	116
0	5786	44160	117
0	5789	44176	116
0	5794	44215	115
0	5802	44224	116
0	5806	44288	117
0	5807	44315	116
0	5814	44340	115
0	5820	44352	116
0	5822	44416	117
0	5823	44418	116
0	5830	44434	115
0	5838	44480	116
0	5839	44542	115
0	5845	44544	116
0	5848	44577	115
0	5854	44608	116
0	5855	44665	115
0	5863	44672	116
0	5865	44736	117
0	5867	44800	118
0	5868	44813	117
0	5878	44864	118
0	5880	44928	119
0	5881	44943	118
0	5887	44992	119
0	5891	45032	118
0	5899	45056	119
0	5900	45066	118
0	5905	45087	117
0	5913	45120	118
0	5914	45141	117
0	5924	45184	118
0	5927	45202	117
0	5933	45248	118
0	5942	45282	117
0	5947	45289	116
0	5952	45300	115
0	5957	45312	116
0	5962	45376	117
0	5965	45420	116
0	5970	45439	115
0	5975	45440	116
0	5979	45461	115
0	5983	45467	114
0	5987	45472	113
0	5994	45496	112
0	5999	45504	113
0	6000	45512	112
0	6010	45533	111
0	6014	45541	110
0	6018	45545	109
0	6026	45568	110
0	6027	45597	109
0	6032	45632	110
0	6036	45665	109
0	6041	45696	110
0	6042	45724	109
0	6047	45760	110
0	6051	45796	109
0	6055	45809	108
0	6063	45824	109
0	6068	45888	110
0	6072	45919	109
0	6076	45924	108
0	6084	45952	109
0	6089	46016	110
0	6090	46062	109
0	6095	46080	110
0	6096	46105	109
0	6100	46106	108
0	6108	46144	109
0	6113	46208	110
0	6121	46272	111
0	6129	46336	112
0	6130	46340	111
0	6137	46383	110
0	6145	46400	111
0	6146	46411	110
0	6150	46414	109
0	6154	46432	108
0	6159	46464	109
0	6160	46465	108
0	6174	46528	109
0	6176	46592	110
0	6180	46634	109
0	6188	46656	110
0	6194	46720	111
0	6195	46722	110
0	6201	46750	109
0	6205	46753	108
0	6209	46766	107
0	6214	46784	108
0	6218	46825	107
0	6222	46826	106
0	6227	46848	107
0	6235	46912	108
0	6236	46947	107
0	6240	46948	106
0	6248	46976	107
0	6249	46983	106
0	6259	47001	105
0	6263	47003	104
0	6267	47020	103
0	6275	47040	104
0	6280	47104	105
0	6281	47112	104
0	6292	47168	105
0	6296	47197	104
0	6310	47232	105
0	6315	47296	106
0	6316	47300	105
0	6329	47360	106
0	6332	47374	105
0	6337	47391	104
0	6345	47424	105
0	6349	47488	106
0	6353	47552	107
0	6354	47564	106
0	6359	47592	105
0	6364	47612	104
0	6370	47616	105
0	6378	47680	106
0	6380	47744	107
0	6382	47808	108
0	6383	47811	107
0	6389	47872	108
0	6390	47879	107
0	6397	47909	106
0	6403	47936	107
0	6411	48000	108
0	6413	48000	109
0	6415	48012	108
0	6421	48064	109
0	6422	48093	108
0	6428	48128	109
0	6436	48154	108
0	6440	48189	107
0	6445	48192	108
0	6453	48256	109
0	6454	48259	108
0	6458	48273	107
0	6466	48320	108
0	6477	48384	109
0	6483	48448	110
0	6484	48473	109
0	6491	48498	108
0	6497	48512	109
0	6499	48576	110
0	6500	48619	109
0	6506	48640	110
0	6510	48704	111
0	6514	48768	112
0	6517	48813	111
0	6523	48832	112
0	6525	48896	113
0	6528	48927	112
0	6534	48960	113
0	6535	48966	112
0	6540	48995	111
0	6548	49024	112
0	6549	49044	111
0	6554	49054	110
0	6559	49088	111
0	6564	49152	112
0	6565	49170	111
0	6572	49188	110
0	6577	49216	111
0	6578	49254	110
0	6589	49280	111
0	6591	49344	112
0	6594	49357	111
0	6606	49408	112
0	6610	49472	113
0	6611	49474	112
0	6620	49536	113
0	6621	49546	112
0	6627	49600	113
0	6628	49617	112
0	6638	49664	113
0	6639	49668	112
0	6646	49719	111
0	6652	49728	112
0	6653	49760	111
0	6661	49792	112
0	6662	49822	111
0	6668	49856	112
0	6669	49859	111
0	6681	49920	112
0	6684	49948	111
0	6690	49984	112
0	6695	49998	111
0	6705	50048	112
0	6708	50110	111
0	6714	50112	112
0	6716	50176	113
0	6717	50212	112
0	6723	50240	113
0	6727	50304	114
0	6729	50368	115
0	6733	50432	116
0	6734	50436	115
0	6739	50493	114
0	6745	50496	115
0	6746	50546	114
0	6752	50560	115
0	6753	50597	114
0	6759	50624	115
0	6762	50661	114
0	6772	50688	115
0	6776	50752	116
0	6777	50811	115
0	6783	50816	116
0	6784	50846	115
0	6790	50880	116
0	6793	50900	115
0	6798	50905	114
0	6804	50944	115
0	6811	51008	116
0	6812	51072	115
0	6816	51072	116
0	6821	51091	115
0	6830	51127	114
0	6838	51136	115
0	6846	51200	116
0	6849	51253	115
0	6855	51264	116
0	6857	51328	117
0	6859	51392	118
0	6860	51402	117
0	6866	51456	118
0	6868	51520	119
0	6871	51565	118
0	6879	51584	119
0	6885	51648	120
0	6887	51712	121
0	6889	51776	122
0	6891	51840	123
0	6892	51841	122
0	6898	51904	123
0	6899	51940	122
0	6905	51968	123
0	6906	52028	122
0	6912	52032	123
0	6913	52048	122
0	6921	52096	123
0	6922	52130	122
0	6928	52160	123
0	6930	52224	124
0	6935	52275	123
0	6941	52288	124
0	6942	52317	123
0	6950	52352	124
0	6953	52398	123
0	6959	52416	124
0	6962	52478	123
0	6968	52480	124
0	6972	52524	123
0	6978	52544	124
0	6984	52608	125
0	6985	52611	124
0	6994	52652	123
0	7000	52672	124
0	7008	52736	125
0	7010	52800	126
0	7011	52806	125
0	7016	52862	124
0	7022	52864	125
0	7028	52928	126
0	7029	52935	125
0	7038	52975	124
0	7043	52980	123
0	7048	52989	122
0	7054	52992	123
0	7058	53056	124
0	7059	53062	123
0	7064	53097	122
0	7068	53119	121
0	7073	53120	122
0	7081	53184	123
0	7082	53202	122
0	7089	53221	121
0	7093	53233	120
0	7098	53248	121
0	7099	53250	120
0	7106	53301	119
0	7111	53312	120
0	7113	53376	121
0	7120	53433	120
0	7125	53440	121
0	7126	53451	120
0	7130	53452	119
0	7138	53504	120
0	7151	53568	121
0	7157	53632	122
0	7159	53696	123
0	7161	53760	124
0	7163	53824	125
0	7164	53836	124
0	7169	53887	123
0	7175	53888	124
0	7177	53952	125
0	7178	53972	124
0	7187	54000	125
0	7192	54014	124
0	7198	54016	125
0	7204	54080	126
0	7213	54144	127
0	7217	54208	128
0	7220	54224	127
0	7232	54272	128
0	7236	54336	129
0	7237	54348	128
0	7243	54400	129
0	7245	54464	130
0	7249	54528	131
0	7250	54562	130
0	7258	54592	131
0	7259	54626	130
0	7266	54647	129
0	7272	54656	130
0	7274	54720	131
0	7276	54784	132
0	7277	54812	131
0	7285	54848	132
0	7287	54912	133
0	7291	54976	134
0	7292	54979	133
0	7298	55040	134
0	7299	55068	133
0	7304	55079	132
0	7309	55090	131
0	7315	55104	132
0	7319	55168	133
0	7321	55232	134
0	7325	55296	135
0	7326	55314	134
0	7334	55360	135
0	7336	55424	136
0	7339	55487	135
0	7345	55488	136
0	7356	55552	137
0	7358	55616	138
0	7361	55653	137
0	7368	55663	136
0	7373	55680	135
0	7377	55680	136
0	7387	55744	137
0	7388	55750	136
0	7394	55808	137
0	7398	55872	138
0	7400	55936	139
0	7401	55942	138
0	7406	55981	137
0	7411	55985	136
0	7421	56000	137
0	7422	56045	136
0	7428	56064	137
0	7431	56094	136
0	7436	56108	135
0	7442	56128	136
0	7444	56192	137
0	7445	56203	136
0	7455	56256	137
0	7456	56274	136
0	7464	56320	137
0	7468	56384	138
0	7472	56448	139
0	7473	56503	138
0	7479	56512	139
0	7480	56553	138
0	7486	56576	139
0	7487	56592	138
0	7494	56620	137
0	7499	56633	136
0	7505	56640	137
0	7506	56650	136
0	7514	56704	137
0	7520	56768	138
0	7521	56796	137
0	7527	56832	138
0	7528	56838	137
0	7536	56896	138
0	7542	56960	139
0	7551	57024	140
0	7553	57088	141
0	7554	57104	140
0	7559	57111	139
0	7565	57152	140
0	7568	57159	139
0	7569	57159	138
0	7583	57216	139
0	7584	57251	138
0	7585	57251	137
0	7596	57271	136
0	7601	57280	137
0	7609	57336	136
0	7617	57344	137
0	7619	57408	138
0	7623	57472	139
0	7626	57515	138
0	7631	57519	137
0	7637	57536	138
0	7638	57545	137
0	7643	57570	136
0	7649	57600	137
0	7654	57641	136
0	7659	57663	135
0	7665	57664	136
0	7671	57728	137
0	7674	57792	136
0	7678	57792	137
0	7682	57856	138
0	7687	57899	137
0	7693	57920	138
0	7694	57965	137
0	7700	57984	138
0	7701	58000	137
0	7707	58048	138
0	7710	58064	137
0	7716	58112	138
0	7717	58137	137
0	7725	58176	138