version 3
run General-6-20240513-00:16:49-20028
attr configname General
attr datetime 20240513-00:16:49
attr datetimef 20240513-001649
attr experiment General
attr inifile omnetpp.ini
attr iterationvars ""
attr iterationvarsd ""
attr iterationvarsf ""
attr measurement ""
attr network AirportControl
attr processid 20028
attr repetition 6
attr replication #6
attr resultdir results
attr runnumber 6
attr seedset 6
config network AirportControl
config repeat 10
config simtime-resolution s
config sim-time-limit 1440min
config **.PrioT_PCT.jobType 0
config **.PrioT_PCF.jobType 1
config **.PrioF_PCT.jobType 2
config **.PrioF_PCF.jobType 3
config **.PrioT_PCT.probArrival 0.04
config **.PrioT_PCF.probArrival 0.01
config **.PrioF_PCT.probArrival 0.01
config **.PrioF_PCF.probArrival 0.94
config **.PrioT_PCT.interarrivalRateRush 0.4min
config **.PrioT_PCF.interarrivalRateRush 0.4min
config **.PrioF_PCT.interarrivalRateRush 0.4min
config **.PrioF_PCF.interarrivalRateRush 0.4min
config **.PrioF_PCF.interarrivalRateNormal 1min
config **.PrioT_PCT.interarrivalRateNormal 1min
config **.PrioF_PCT.interarrivalRateNormal 1min
config **.PrioT_PCF.interarrivalRateNormal 1min
config **.PrioF_PCF.numberOfPeaks 4
config **.PrioF_PCT.numberOfPeaks 4
config **.PrioT_PCF.numberOfPeaks 4
config **.PrioT_PCT.numberOfPeaks 4
config **.PrioF_PCF.durationOfPeaks 150min
config **.PrioF_PCT.durationOfPeaks 150min
config **.PrioT_PCF.durationOfPeaks 150min
config **.PrioT_PCT.durationOfPeaks 150min
config **.PrioT_Server.serviceTime exponential(3min)
config **.PrioF_Server3.serviceTime exponential(5min)
config **.PrioF_Server2.serviceTime exponential(5min)
config **.PrioF_Server1.serviceTime exponential(5min)
config **.PrioF_Server0.serviceTime exponential(5min)
config **.NoPC_Server0.serviceTime exponential(3min)
config **.NoPC_Server3.serviceTime exponential(3min)
config **.NoPC_Server2.serviceTime exponential(3min)
config **.NoPC_Server1.serviceTime exponential(3min)
config **.PC_Server0.serviceTime exponential(1min)
config **.PC_Server1.serviceTime exponential(1min)

vector 0 AirportControl.PrioF_PQ queueLength:vector ETV
attr interpolationmode sample-hold
attr recordingmode vector
attr title "queue length"
vector 1 AirportControl.PrioT_PQ queueLength:vector ETV
attr interpolationmode sample-hold
attr recordingmode vector
attr title "queue length"
vector 2 AirportControl.NoPC_PQ queueLength:vector ETV
attr interpolationmode sample-hold
attr recordingmode vector
attr title "queue length"
vector 3 AirportControl.PC_PQ queueLength:vector ETV
attr interpolationmode sample-hold
attr recordingmode vector
attr title "queue length"
vector 4 AirportControl.sink lifeTime:vector ETV
attr interpolationmode none
attr recordingmode vector
attr title "lifetime of arrived jobs"
attr unit s
0	0	0	0
0	73	512	1
0	74	527	0
0	89	640	1
0	90	665	0
0	98	704	1
0	102	768	2
0	103	819	1
0	109	832	2
0	114	884	1
0	122	896	2
0	124	960	3
0	127	998	2
0	133	1024	3
0	134	1038	2
0	139	1064	1
0	145	1088	2
0	146	1143	1
0	152	1152	2
0	156	1216	3
0	160	1280	4
0	161	1303	3
0	166	1309	2
0	172	1344	3
0	176	1408	4
0	180	1472	5
0	191	1536	6
0	194	1578	5
0	202	1600	6
0	206	1664	7
0	208	1728	8
0	210	1792	9
0	211	1830	8
0	217	1856	9
0	221	1920	10
0	222	1930	9
0	227	1958	8
0	233	1984	9
0	235	2048	10
0	241	2112	11
0	243	2176	12
0	245	2240	13
0	247	2304	14
0	248	2316	13
0	253	2328	12
0	258	2330	11
0	266	2368	10
0	267	2368	11
0	276	2426	10
0	282	2432	11
0	286	2496	12
0	287	2499	11
0	292	2523	10
0	297	2550	9
0	303	2560	10
0	307	2624	11
0	308	2639	10
0	316	2688	11
0	320	2752	12
0	322	2816	13
0	325	2878	12
0	331	2880	13
0	335	2944	14
0	336	2973	13
0	345	3008	14
0	347	3072	15
0	351	3136	16
0	352	3152	15
0	358	3200	16
0	364	3264	17
0	365	3279	16
0	371	3328	17
0	374	3352	16
0	380	3392	17
0	384	3456	18
0	385	3462	17
0	395	3520	18
0	399	3584	19
0	401	3648	20
0	405	3712	21
0	407	3776	22
0	408	3793	21
0	413	3796	20
0	419	3840	21
0	420	3872	20
0	426	3904	21
0	429	3952	20
0	437	3968	21
0	441	4032	22
0	442	4068	21
0	448	4096	22
0	449	4132	21
0	455	4160	22
0	456	4179	21
0	463	4205	20
0	468	4208	19
0	476	4224	20
0	478	4288	21
0	482	4352	22
0	483	4357	21
0	491	4416	22
0	497	4480	23
0	501	4503	22
0	509	4544	23
0	519	4608	24
0	520	4650	23
0	526	4672	24
0	527	4731	23
0	533	4736	24
0	534	4791	23
0	540	4800	24
0	541	4841	23
0	548	4853	22
0	554	4864	23
0	557	4904	22
0	563	4928	23
0	568	4974	22
0	574	4992	23
0	580	5056	24
0	584	5120	25
0	586	5184	26
0	587	5189	25
0	592	5236	24
0	598	5248	25
0	599	5260	24
0	607	5312	25
0	609	5376	26
0	613	5440	27
0	614	5462	26
0	620	5504	27
0	621	5522	26
0	627	5568	27
0	633	5632	28
0	637	5696	29
0	639	5760	30
0	640	5804	29
0	645	5811	28
0	651	5824	29
0	652	5839	28
0	660	5888	29
0	662	5952	30
0	663	5966	29
0	668	5998	28
0	677	6000	29
0	681	6016	30
0	687	6080	31
0	698	6144	32
0	702	6208	33
0	703	6245	32
0	708	6263	31
0	713	6272	32
0	714	6327	31
0	722	6336	32
0	730	6343	31
0	735	6362	30
0	741	6400	31
0	742	6410	30
0	746	6428	29
0	754	6464	30
0	758	6490	29
0	762	6499	28
0	769	6527	27
0	774	6528	28
0	784	6592	29
0	785	6650	28
0	791	6656	29
0	797	6720	30
0	798	6754	29
0	803	6775	28
0	809	6784	29
0	812	6803	28
0	819	6824	27
0	827	6848	28
0	835	6912	29
0	836	6928	28
0	842	6976	29
0	843	6991	28
0	849	7040	29
0	853	7104	30
0	856	7148	29
0	862	7168	30
0	864	7232	31
0	867	7269	30
0	875	7296	31
0	876	7306	30
0	882	7360	31
0	883	7413	30
0	889	7424	31
0	890	7482	30
0	895	7486	29
0	901	7488	30
0	902	7497	29
0	913	7552	30
0	916	7606	29
0	921	7611	28
0	926	7616	29
0	927	7678	28
0	932	7680	29
0	933	7684	28
0	941	7744	29
0	952	7778	28
0	957	7801	27
0	963	7808	28
0	975	7872	29
0	976	7915	28
0	981	7936	27
0	985	7936	28
0	989	8000	29
0	990	8029	28
0	995	8064	29
0	1002	8128	30
0	1003	8141	29
0	1010	8163	28
0	1016	8192	29
0	1017	8200	28
0	1022	8256	29
0	1028	8279	28
0	1033	8292	27
0	1038	8320	28
0	1047	8384	29
0	1049	8448	30
0	1050	8477	29
0	1055	8481	28
0	1061	8512	29
0	1064	8539	28
0	1072	8576	29
0	1073	8622	28
0	1079	8640	29
0	1085	8704	30
0	1089	8768	31
0	1090	8808	30
0	1096	8832	31
0	1098	8896	32
0	1100	8960	33
0	1104	9002	32
0	1115	9014	31
0	1120	9018	30
0	1126	9024	31
0	1127	9038	30
0	1139	9088	31
0	1140	9102	30
0	1145	9138	29
0	1150	9152	30
0	1151	9157	29
0	1159	9216	30
0	1160	9257	29
0	1164	9258	28
0	1169	9280	29
0	1170	9289	28
0	1177	9317	27
0	1181	9331	26
0	1188	9343	25
0	1193	9344	26
0	1198	9408	27
0	1199	9419	26
0	1212	9457	25
0	1219	9459	24
0	1224	9472	25
0	1226	9536	26
0	1227	9554	25
0	1231	9567	24
0	1236	9600	25
0	1237	9620	24
0	1241	9627	23
0	1245	9644	22
0	1249	9648	21
0	1253	9653	20
0	1254	9653	19
0	1265	9664	20
0	1267	9728	21
0	1269	9792	22
0	1270	9807	21
0	1278	9856	22
0	1285	9892	21
0	1293	9920	22
0	1294	9980	21
0	1302	9984	22
0	1313	10048	23
0	1314	10101	22
0	1319	10112	23
0	1323	10132	22
0	1327	10172	21
0	1332	10176	22
0	1340	10240	23
0	1350	10303	22
0	1355	10304	23
0	1357	10368	24
0	1361	10412	23
0	1369	10432	24
0	1371	10496	25
0	1375	10553	24
0	1380	10560	25
0	1381	10568	24
0	1385	10592	23
0	1396	10624	24
0	1400	10681	23
0	1405	10688	24
0	1407	10752	25
0	1408	10755	24
0	1416	10816	25
0	1420	10841	24
0	1428	10880	25
0	1429	10902	24
0	1439	10934	23
0	1444	10944	24
0	1454	11008	25
0	1455	11046	24
0	1463	11072	25
0	1464	11080	24
0	1479	11136	25
0	1482	11200	26
0	1484	11264	27
0	1485	11265	26
0	1491	11328	27
0	1492	11358	26
0	1499	11370	25
0	1505	11392	26
0	1506	11404	25
0	1516	11456	26
0	1517	11489	25
0	1523	11520	26
0	1529	11584	27
0	1530	11612	26
0	1535	11621	25
0	1540	11627	24
0	1548	11648	25
0	1551	11703	24
0	1557	11712	25
0	1558	11719	24
0	1570	11776	25
0	1574	11840	26
0	1576	11904	27
0	1578	11968	28
0	1583	12000	29
0	1587	12032	30
0	1588	12039	29
0	1603	12096	30
0	1604	12142	29
0	1609	12144	28
0	1615	12160	29
0	1627	12224	30
0	1628	12270	29
0	1633	12278	28
0	1639	12288	29
0	1641	12352	30
0	1642	12365	29
0	1648	12416	30
0	1652	12480	31
0	1657	12508	30
0	1663	12544	31
0	1664	12587	30
0	1672	12608	31
0	1678	12672	32
0	1679	12704	31
0	1684	12717	30
0	1690	12736	31
0	1693	12786	30
0	1699	12800	31
0	1701	12864	32
0	1702	12869	31
0	1707	12875	30
0	1718	12924	29
0	1724	12928	30
0	1726	12992	31
0	1727	13019	30
0	1732	13023	29
0	1739	13054	28
0	1745	13056	29
0	1751	13120	30
0	1755	13184	31
0	1756	13208	30
0	1761	13217	29
0	1768	13247	28
0	1774	13248	29
0	1775	13287	28
0	1781	13312	29
0	1783	13376	30
0	1786	13411	29
0	1792	13440	30
0	1793	13447	29
0	1797	13457	28
0	1807	13469	27
0	1811	13471	26
0	1821	13488	25
0	1829	13504	26
0	1830	13513	25
0	1834	13520	24
0	1839	13568	25
0	1844	13632	26
0	1845	13636	25
0	1850	13657	24
0	1858	13696	25
0	1865	13760	26
0	1870	13798	25
0	1874	13805	24
0	1879	13824	25
0	1882	13855	24
0	1886	13864	23
0	1890	13880	22
0	1895	13888	23
0	1896	13890	22
0	1907	13952	23
0	1911	13991	22
0	1916	14016	23
0	1926	14060	22
0	1931	14080	23
0	1933	14144	24
0	1941	14208	25
0	1942	14244	24
0	1946	14253	23
0	1950	14271	22
0	1955	14272	23
0	1971	14336	24
0	1973	14400	25
0	1977	14464	26
0	1978	14482	25
0	1988	14528	26
0	1990	14592	27
0	1991	14607	26
0	1996	14620	25
0	2002	14656	26
0	2008	14720	27
0	2010	14784	28
0	2011	14786	27
0	2016	14800	26
0	2028	14848	27
0	2029	14905	26
0	2035	14912	27
0	2036	14963	26
0	2041	14968	25
0	2047	14976	26
0	2051	15002	25
0	2059	15040	26
0	2067	15104	27
0	2070	15112	26
0	2078	15168	27
0	2082	15232	28
0	2083	15249	27
0	2088	15294	26
0	2094	15296	27
0	2095	15299	26
0	2101	15360	27
0	2102	15365	26
0	2107	15424	27
0	2112	15488	28
0	2115	15519	27
0	2125	15552	28
0	2126	15564	27
0	2136	15616	28
0	2138	15680	29
0	2141	15732	28
0	2147	15744	29
0	2148	15761	28
0	2154	15808	29
0	2155	15848	28
0	2161	15872	29
0	2165	15936	30
0	2169	16000	31
0	2170	16013	30
0	2176	16064	31
0	2177	16103	30
0	2183	16128	31
0	2186	16174	30
0	2192	16192	31
0	2195	16200	30
0	2207	16256	31
0	2208	16304	30
0	2214	16320	31
0	2216	16384	32
0	2217	16413	31
0	2223	16448	32
0	2226	16477	31
0	2237	16512	32
0	2238	16533	31
0	2244	16576	32
0	2245	16587	31
0	2250	16607	30
0	2258	16640	31
0	2259	16689	30
0	2264	16697	29
0	2269	16704	30
0	2273	16753	29
0	2278	16768	30
0	2279	16777	29
0	2292	16829	28
0	2297	16832	29
0	2298	16835	28
0	2305	16845	27
0	2309	16880	26
0	2314	16896	27
0	2316	16960	28
0	2317	16988	27
0	2321	17002	26
0	2325	17005	25
0	2339	17024	26
0	2340	17033	25
0	2345	17088	26
0	2347	17152	27
0	2348	17172	26
0	2352	17200	25
0	2360	17216	26
0	2364	17252	25
0	2375	17280	26
0	2383	17344	27
0	2388	17408	28
0	2394	17455	27
0	2400	17472	28
0	2404	17536	29
0	2408	17600	30
0	2414	17664	31
0	2415	17678	30
0	2420	17690	29
0	2425	17704	28
0	2430	17716	27
0	2436	17728	28
0	2438	17792	29
0	2439	17837	28
0	2444	17856	29
0	2451	17920	30
0	2452	17949	29
0	2460	17984	30
0	2461	17990	29
0	2472	18000	30
0	2475	18006	29
0	2481	18018	28
0	2487	18027	27
0	2493	18048	28
0	2496	18080	27
0	2506	18112	28
0	2507	18153	27
0	2513	18176	28
0	2518	18207	27
0	2522	18209	26
0	2527	18240	27
0	2533	18304	28
0	2534	18323	27
0	2538	18335	26
0	2542	18340	25
0	2548	18360	24
0	2553	18368	25
0	2557	18414	24
0	2562	18432	25
0	2563	18441	24
0	2583	18496	25
0	2588	18560	26
0	2592	18609	25
0	2597	18624	26
0	2601	18681	25
0	2606	18688	26
0	2607	18695	25
0	2615	18752	26
0	2616	18784	25
0	2620	18803	24
0	2625	18816	25
0	2629	18871	24
0	2634	18880	25
0	2639	18944	26
0	2643	18964	25
0	2651	19008	26
0	2652	19044	25
0	2660	19072	26
0	2662	19136	27
0	2663	19142	26
0	2670	19188	25
0	2678	19200	26
0	2688	19264	27
0	2689	19299	26
0	2694	19304	25
0	2699	19328	26
0	2705	19366	25
0	2711	19392	26
0	2712	19395	25
0	2722	19456	26
0	2731	19520	27
0	2732	19533	26
0	2738	19584	27
0	2743	19647	26
0	2749	19648	27
0	2757	19712	28
0	2761	19776	29
0	2763	19840	30
0	2765	19904	31
0	2767	19968	32
0	2769	20032	33
0	2771	20096	34
0	2772	20144	33
0	2777	20159	32
0	2783	20160	33
0	2786	20184	32
0	2796	20224	33
0	2798	20288	34
0	2800	20352	35
0	2801	20364	34
0	2806	20372	33
0	2812	20416	34
0	2813	20452	33
0	2819	20480	34
0	2820	20535	33
0	2826	20544	34
0	2831	20556	33
0	2837	20608	34
0	2838	20613	33
0	2846	20672	34
0	2849	20725	33
0	2859	20736	34
0	2861	20800	35
0	2863	20864	36
0	2866	20893	35
0	2872	20928	36
0	2874	20992	37
0	2880	21027	36
0	2886	21056	37
0	2887	21061	36
0	2892	21118	35
0	2898	21120	36
0	2899	21131	35
0	2909	21184	36
0	2912	21200	35
0	2917	21207	34
0	2927	21248	35
0	2932	21290	34
0	2938	21312	35
0	2946	21376	36
0	2948	21440	37
0	2949	21481	36
0	2954	21496	35
0	2962	21504	36
0	2963	21547	35
0	2969	21568	36
0	2971	21632	37
0	2973	21696	38
0	2974	21716	37
0	2982	21760	38
0	2985	21803	37
0	2991	21824	38
0	2993	21888	39
0	2996	21952	38
0	3000	21952	39
0	3004	22016	40
0	3005	22071	39
0	3011	22080	40
0	3012	22087	39
0	3022	22144	40
0	3026	22208	41
0	3027	22271	40
0	3033	22272	41
0	3034	22291	40
0	3039	22317	39
0	3044	22329	38
0	3049	22336	39
0	3050	22337	38
0	3063	22400	39
0	3067	22464	40
0	3076	22528	41
0	3084	22592	42
0	3086	22656	43
0	3088	22720	44
0	3089	22754	43
0	3095	22784	44
0	3097	22848	45
0	3101	22912	46
0	3102	22933	45
0	3108	22976	46
0	3110	23040	47
0	3112	23104	48
0	3113	23126	47
0	3119	23168	48
0	3121	23232	49
0	3123	23296	50
0	3127	23360	51
0	3129	23424	52
0	3131	23488	53
0	3133	23552	54
0	3134	23559	53
0	3142	23616	54
0	3146	23680	55
0	3148	23744	56
0	3149	23795	55
0	3155	23808	56
0	3156	23852	55
0	3162	23872	56
0	3164	23936	57
0	3165	23969	56
0	3177	24000	57
0	3179	24000	58
0	3181	24009	57
0	3191	24041	56
0	3196	24064	57
0	3202	24107	56
0	3208	24128	57
0	3212	24192	58
0	3213	24195	57
0	3218	24221	56
0	3227	24256	57
0	3234	24320	58
0	3240	24384	59
0	3243	24392	58
0	3253	24448	59
0	3254	24486	58
0	3260	24512	59
0	3264	24576	60
0	3266	24640	61
0	3267	24654	60
0	3275	24704	61
0	3276	24707	60
0	3281	24742	59
0	3287	24768	60
0	3293	24832	61
0	3294	24836	60
0	3299	24863	59
0	3305	24896	60
0	3309	24960	61
0	3311	25024	62
0	3313	25088	63
0	3315	25152	64
0	3316	25186	63
0	3321	25193	62
0	3327	25216	63
0	3329	25280	64
0	3333	25344	65
0	3334	25381	64
0	3340	25408	63
0	3341	25408	64
0	3348	25450	63
0	3356	25472	64
0	3361	25536	65
0	3364	25563	64
0	3376	25600	65
0	3378	25664	66
0	3382	25728	67
0	3383	25760	66
0	3390	25789	65
0	3396	25792	66
0	3397	25800	65
0	3406	25843	64
0	3414	25856	65
0	3415	25859	64
0	3420	25893	63
0	3425	25896	62
0	3430	25920	63
0	3432	25984	64
0	3433	25989	63
0	3441	26048	64
0	3449	26062	63
0	3455	26112	64
0	3461	26176	65
0	3462	26179	64
0	3467	26201	63
0	3477	26240	64
0	3478	26243	63
0	3483	26269	62
0	3489	26304	63
0	3494	26360	62
0	3500	26368	63
0	3504	26432	64
0	3508	26496	65
0	3510	26560	66
0	3511	26575	65
0	3516	26586	64
0	3526	26624	65
0	3527	26666	64
0	3533	26688	65
0	3535	26752	66
0	3539	26816	67
0	3540	26831	66
0	3548	26880	67
0	3550	26944	68
0	3555	27008	69
0	3557	27072	70
0	3565	27136	71
0	3567	27200	72
0	3568	27226	71
0	3574	27264	72
0	3575	27303	71
0	3581	27328	72
0	3582	27335	71
0	3587	27352	70
0	3592	27364	69
0	3597	27392	70
0	3601	27412	69
0	3609	27456	70
0	3612	27488	69
0	3620	27520	70
0	3621	27525	69
0	3628	27543	68
0	3636	27584	69
0	3637	27612	68
0	3643	27648	69
0	3651	27712	70
0	3653	27776	71
0	3655	27840	72
0	3657	27904	73
0	3659	27968	74
0	3663	28032	75
0	3664	28056	74
0	3670	28096	75
0	3671	28100	74
0	3677	28160	75
0	3681	28224	76
0	3682	28243	75
0	3688	28288	76
0	3689	28290	75
0	3699	28352	76
0	3700	28361	75
0	3706	28416	76
0	3707	28461	75
0	3712	28470	74
0	3718	28480	75
0	3722	28507	74
0	3733	28544	73
0	3737	28544	74
0	3739	28568	73
0	3749	28608	74
0	3753	28657	73
0	3761	28672	74
0	3762	28676	73
0	3767	28696	72
0	3771	28711	71
0	3778	28733	70
0	3783	28736	71
0	3793	28800	72
0	3797	28864	73
0	3798	28886	72
0	3803	28890	71
0	3815	28928	72
0	3817	28992	73
0	3821	29056	74
0	3823	29120	75
0	3825	29184	76
0	3826	29192	75
0	3831	29193	74
0	3837	29248	75
0	3841	29312	76
0	3847	29376	77
0	3848	29390	76
0	3853	29394	75
0	3859	29440	76
0	3865	29504	77
0	3866	29567	76
0	3872	29568	77
0	3874	29632	78
0	3876	29696	79
0	3877	29738	78
0	3882	29760	77
0	3886	29760	78
0	3892	29824	79
0	3894	29888	80
0	3900	29952	81
0	3905	30000	82
0	3908	30004	81
0	3914	30016	82
0	3916	30080	83
0	3920	30144	84
0	3921	30205	83
0	3927	30208	84
0	3933	30247	83
0	3939	30272	84
0	3943	30336	85
0	3947	30400	86
0	3948	30403	85
0	3953	30453	84
0	3959	30464	85
0	3963	30528	86
0	3966	30570	85
0	3972	30592	86
0	3979	30626	85
0	3984	30634	84
0	3991	30636	83
0	3996	30640	82
0	4003	30650	81
0	4011	30656	82
0	4012	30666	81
0	4017	30699	80
0	4024	30720	81
0	4025	30728	80
0	4029	30732	79
0	4037	30784	80
0	4047	30848	81
0	4048	30857	80
0	4058	30912	81
0	4059	30976	80
0	4063	30976	81
0	4071	31040	82
0	4073	31104	83
0	4077	31168	84
0	4078	31211	83
0	4084	31232	84
0	4085	31233	83
0	4090	31262	82
0	4096	31296	83
0	4098	31360	84
0	4101	31399	83
0	4106	31412	82
0	4114	31424	83
0	4118	31488	84
0	4124	31543	83
0	4133	31552	84
0	4139	31571	83
0	4144	31616	82
0	4148	31616	83
0	4153	31674	82
0	4159	31680	83
0	4163	31744	84
0	4167	31808	85
0	4168	31839	84
0	4174	31872	85
0	4175	31886	84
0	4180	31906	83
0	4188	31936	84
0	4189	31952	83
0	4199	32000	84
0	4203	32064	85
0	4206	32072	84
0	4212	32128	85
0	4213	32151	84
0	4221	32192	85
0	4222	32226	84
0	4228	32256	85
0	4229	32302	84
0	4237	32320	85
0	4243	32384	86
0	4245	32448	87
0	4247	32512	88
0	4248	32534	87
0	4254	32576	88
0	4258	32640	89
0	4259	32691	88
0	4265	32704	89
0	4266	32744	88
0	4272	32768	89
0	4273	32778	88
0	4282	32811	87
0	4287	32820	86
0	4293	32832	87
0	4295	32896	88
0	4301	32960	89
0	4302	32998	88
0	4311	33024	89
0	4313	33088	90
0	4314	33128	89
0	4320	33152	90
0	4327	33193	89
0	4334	33216	88
0	4338	33216	89
0	4341	33224	88
0	4345	33261	87
0	4350	33280	88
0	4351	33307	87
0	4356	33344	88
0	4358	33408	89
0	4359	33418	88
0	4367	33472	89
0	4368	33480	88
0	4378	33536	87
0	4382	33536	88
0	4384	33573	87
0	4389	33600	88
0	4393	33636	87
0	4398	33664	88
0	4402	33715	87
0	4407	33728	88
0	4408	33780	87
0	4413	33792	88
0	4421	33856	89
0	4428	33907	88
0	4433	33920	89
0	4434	33983	88
0	4439	33984	89
0	4444	34048	90
0	4451	34074	89
0	4460	34093	88
0	4466	34112	89
0	4470	34176	90
0	4472	34240	91
0	4473	34274	90
0	4479	34304	91
0	4487	34368	92
0	4489	34432	93
0	4491	34496	94
0	4499	34536	93
0	4505	34560	94
0	4508	34614	93
0	4513	34615	92
0	4518	34622	91
0	4523	34624	92
0	4529	34686	91
0	4535	34688	92
0	4536	34737	91
0	4541	34752	92
0	4550	34816	93
0	4552	34880	94
0	4553	34921	93
0	4558	34924	92
0	4564	34944	93
0	4565	34958	92
0	4569	34988	91
0	4574	35008	92
0	4586	35072	93
0	4587	35079	92
0	4592	35092	91
0	4600	35136	92
0	4604	35200	93
0	4605	35208	92
0	4613	35264	93
0	4614	35266	92
0	4619	35268	91
0	4624	35279	90
0	4629	35328	91
0	4630	35352	90
0	4635	35392	91
0	4640	35456	92
0	4645	35520	93
0	4646	35522	92
0	4654	35584	93
0	4657	35615	92
0	4663	35648	93
0	4668	35710	92
0	4674	35712	93
0	4675	35716	92
0	4687	35776	93
0	4689	35840	94
0	4691	35904	95
0	4695	35968	96
0	4700	36000	97
0	4704	36032	98
0	4705	36059	97
0	4710	36073	96
0	4716	36096	97
0	4725	36160	98
0	4728	36222	97
0	4734	36224	98
0	4738	36288	99
0	4748	36352	100
0	4749	36387	99
0	4754	36391	98
0	4762	36416	99
0	4763	36422	98
0	4770	36476	97
0	4776	36480	98
0	4779	36514	97
0	4785	36544	98
0	4789	36608	99
0	4790	36637	98
0	4798	36672	99
0	4799	36723	98
0	4804	36725	97
0	4810	36736	98
0	4811	36768	97
0	4817	36800	98
0	4823	36864	99
0	4824	36901	98
0	4830	36928	99
0	4831	36980	98
0	4839	36992	99
0	4843	37056	100
0	4844	37113	99
0	4850	37120	100
0	4851	37170	99
0	4857	37184	100
0	4860	37246	99
0	4866	37248	100
0	4867	37266	99
0	4871	37278	98
0	4876	37312	99
0	4890	37376	100
0	4891	37435	99
0	4897	37440	100
0	4898	37492	99
0	4907	37504	100
0	4913	37568	101
0	4916	37623	100
0	4922	37632	101
0	4928	37696	102
0	4929	37719	101
0	4934	37736	100
0	4940	37760	101
0	4941	37766	100
0	4953	37824	101
0	4956	37880	100
0	4961	37884	99
0	4967	37888	100
0	4970	37943	99
0	4976	37952	100
0	4978	38016	101
0	4982	38080	102
0	4985	38143	101
0	4991	38144	102
0	4993	38208	103
0	4994	38241	102
0	5000	38272	103
0	5001	38323	102
0	5006	38336	101
0	5010	38336	102
0	5013	38400	103
0	5014	38412	102
0	5019	38464	103
0	5020	38480	102
0	5021	38480	101
0	5029	38528	102
0	5034	38592	103
0	5035	38640	102
0	5043	38656	103
0	5044	38668	102
0	5049	38720	103
0	5050	38784	102
0	5054	38784	103
0	5060	38848	104
0	5065	38912	105
0	5066	38919	104
0	5070	38920	103
0	5075	38976	104
0	5096	39040	105
0	5099	39093	104
0	5104	39104	105
0	5105	39109	104
0	5110	39168	105
0	5111	39222	104
0	5116	39232	105
0	5120	39274	104
0	5125	39296	105
0	5126	39298	104
0	5140	39360	105
0	5141	39397	104
0	5145	39422	103
0	5153	39424	104
0	5161	39488	105
0	5162	39510	104
0	5167	39552	105
0	5168	39562	104
0	5172	39586	103
0	5179	39607	102
0	5180	39607	101
0	5188	39616	102
0	5193	39680	103
0	5194	39722	102
0	5205	39744	103
0	5213	39808	104
0	5222	39872	105
0	5226	39936	106
0	5229	39993	105
0	5235	40000	106
0	5236	40010	105
0	5242	40064	106
0	5243	40077	105
0	5253	40128	106
0	5255	40192	107
0	5257	40256	108
0	5258	40275	107
0	5268	40320	108
0	5269	40379	107
0	5275	40384	108
0	5277	40448	109
0	5282	40512	110
0	5287	40538	109
0	5294	40574	108
0	5300	40576	109
0	5306	40640	110
0	5307	40673	109
0	5313	40704	110
0	5314	40707	109
0	5321	40747	108
0	5327	40768	109
0	5329	40832	110
0	5333	40896	111
0	5334	40904	110
0	5342	40960	111
0	5343	40969	110
0	5348	41014	109
0	5354	41024	110
0	5359	41050	109
0	5364	41070	108
0	5372	41088	109
0	5375	41142	108
0	5381	41152	109
0	5382	41170	108
0	5390	41216	109
0	5394	41280	110
0	5396	41344	111
0	5400	41408	112
0	5402	41472	113
0	5403	41488	112
0	5408	41493	111
0	5416	41536	112
0	5417	41547	111
0	5422	41560	110
0	5432	41600	111
0	5433	41605	110
0	5438	41627	109
0	5450	41664	110
0	5453	41716	109
0	5459	41728	110
0	5461	41792	111
0	5464	41840	110
0	5470	41856	111
0	5471	41918	110
0	5477	41920	111
0	5481	41984	112
0	5486	42000	113
0	5495	42048	114
0	5497	42112	115
0	5499	42176	116
0	5503	42240	117
0	5510	42291	116
0	5516	42304	117
0	5517	42333	116
0	5523	42368	117
0	5524	42413	116
0	5530	42432	117
0	5531	42449	116
0	5535	42454	115
0	5543	42496	116
0	5548	42560	117
0	5549	42594	116
0	5557	42624	117
0	5558	42639	116
0	5563	42688	117
0	5565	42752	118
0	5570	42816	119
0	5576	42880	120
0	5582	42944	121
0	5583	42991	120
0	5589	43008	121
0	5591	43072	122
0	5595	43136	123
0	5596	43161	122
0	5602	43200	123
0	5603	43202	122
0	5608	43217	121
0	5613	43236	120
0	5621	43264	121
0	5626	43327	120
0	5632	43328	121
0	5634	43392	122
0	5636	43456	123
0	5643	43520	124
0	5644	43576	123
0	5650	43584	124
0	5654	43648	125
0	5656	43712	126
0	5657	43749	125
0	5665	43776	126
0	5673	43840	127
0	5674	43855	126
0	5679	43887	125
0	5685	43904	126
0	5689	43968	127
0	5690	43972	126
0	5695	43985	125
0	5700	44018	124
0	5708	44032	125
0	5714	44096	126
0	5715	44102	125
0	5722	44125	124
0	5728	44160	125
0	5731	44221	124
0	5737	44224	125
0	5741	44288	126
0	5744	44348	125
0	5750	44352	126
0	5751	44408	125
0	5756	44413	124
0	5762	44416	125
0	5768	44480	126
0	5769	44516	125
0	5775	44544	126
0	5778	44573	125
0	5786	44608	126
0	5787	44647	125
0	5793	44672	126
0	5796	44685	125
0	5804	44736	126
0	5805	44754	125
0	5813	44800	126
0	5816	44847	125
0	5821	44857	124
0	5827	44864	125
0	5828	44901	124
0	5834	44928	125
0	5836	44938	124
0	5843	44992	125
0	5850	45056	126
0	5857	45095	125
0	5864	45097	124
0	5874	45120	125
0	5877	45151	124
0	5882	45159	123
0	5890	45184	124
0	5892	45248	125
0	5896	45312	126
0	5897	45325	125
0	5905	45376	126
0	5907	45440	127
0	5908	45490	126
0	5914	45504	127
0	5917	45534	126
0	5924	45558	125
0	5930	45568	126
0	5931	45581	125
0	5936	45628	124
0	5942	45632	125
0	5943	45639	124
0	5947	45666	123
0	5952	45696	124
0	5956	45710	123
0	5963	45753	122
0	5968	45760	123
0	5979	45824	124
0	5982	45888	125
0	5983	45900	124
0	5989	45952	125
0	5990	45954	124
0	5995	45977	123
0	6000	46016	124
0	6009	46080	125
0	6015	46144	126
0	6016	46182	125
0	6021	46198	124
0	6026	46205	123
0	6032	46208	124
0	6034	46272	125
0	6035	46280	124
0	6040	46330	123
0	6045	46336	124
0	6046	46348	123
0	6054	46400	124
0	6056	46464	125
0	6057	46470	124
0	6061	46489	123
0	6068	46505	122
0	6073	46528	123
0	6090	46557	122
0	6095	46592	123
0	6099	46643	122
0	6109	46656	123
0	6112	46665	122
0	6118	46720	123
0	6120	46784	124
0	6121	46791	123
0	6128	46831	122
0	6133	46848	123
0	6134	46852	122
0	6141	46891	121
0	6146	46912	122
0	6147	46939	121
0	6157	46950	120
0	6161	46973	119
0	6166	46976	120
0	6167	46999	119
0	6171	47001	118
0	6182	47040	119
0	6186	47069	118
0	6190	47080	117
0	6198	47104	118
0	6199	47134	117
0	6204	47168	118
0	6211	47211	117
0	6219	47232	118
0	6220	47238	117
0	6224	47260	116
0	6232	47296	117
0	6233	47340	116
0	6238	47360	117
0	6240	47424	118
0	6241	47478	117
0	6246	47488	118
0	6251	47552	119
0	6252	47580	118
0	6260	47616	119
0	6264	47630	118
0	6269	47680	117
0	6270	47680	118
0	6283	47711	117
0	6288	47744	118
0	6289	47757	117
0	6293	47770	116
0	6301	47808	117
0	6306	47872	118
0	6317	47936	119
0	6320	47985	118
0	6330	48000	119
0	6332	48000	120
0	6334	48002	119
0	6342	48064	120
0	6355	48128	121
0	6358	48145	120
0	6363	48169	119
0	6368	48178	118
0	6376	48192	119
0	6377	48232	118
0	6382	48237	117
0	6387	48256	118
0	6392	48320	119
0	6396	48384	120
0	6404	48448	121
0	6410	48512	122
0	6412	48576	123
0	6416	48640	124
0	6417	48703	123
0	6423	48704	124
0	6424	48749	123
0	6430	48768	124
0	6431	48773	123
0	6438	48827	122
0	6444	48832	123
0	6448	48896	124
0	6450	48960	125
0	6452	49024	126
0	6453	49036	125
0	6458	49075	124
0	6466	49088	125
0	6468	49152	126
0	6472	49216	127
0	6476	49280	128
0	6478	49344	129
0	6480	49408	130
0	6482	49472	131
0	6488	49535	130
0	6494	49536	131
0	6499	49598	130
0	6505	49600	131
0	6508	49648	130
0	6514	49664	131
0	6518	49728	132
0	6519	49746	131
0	6525	49792	132
0	6526	49825	131
0	6532	49856	132
0	6533	49862	131
0	6541	49920	132
0	6544	49929	131
0	6550	49984	132
0	6552	50048	133
0	6555	50077	132
0	6560	50109	131
0	6565	50112	132
0	6572	50176	133
0	6573	50216	132
0	6583	50240	133
0	6586	50297	132
0	6592	50304	133
0	6593	50361	132
0	6599	50368	133
0	6600	50378	132
0	6608	50432	133
0	6611	50475	132
0	6617	50496	133
0	6618	50514	132
0	6628	50560	133
0	6631	50608	132
0	6639	50624	133
0	6643	50688	134
0	6644	50698	133
0	6652	50752	134
0	6653	50769	133
0	6658	50792	132
0	6664	50816	133
0	6665	50873	132
0	6673	50880	133
0	6674	50888	132
0	6680	50944	133
0	6683	50988	132
0	6688	50991	131
0	6697	51008	132
0	6700	51049	131
0	6706	51072	132
0	6712	51136	133
0	6713	51140	132
0	6723	51200	133
0	6728	51233	132
0	6736	51264	133
0	6737	51324	132
0	6743	51328	133
0	6747	51392	134
0	6748	51424	133
0	6754	51456	134
0	6755	51459	133
0	6765	51520	134
0	6767	51584	135
0	6773	51648	136
0	6775	51712	137
0	6776	51754	136
0	6782	51776	137
0	6786	51840	138
0	6787	51869	137
0	6793	51904	138
0	6795	51968	139
0	6797	52032	140
0	6798	52079	139
0	6804	52096	140
0	6808	52160	141
0	6809	52162	140
0	6817	52224	141
0	6818	52274	140
0	6823	52288	139
0	6827	52288	140
0	6833	52352	141
0	6834	52403	140
0	6840	52416	141
0	6844	52480	142
0	6851	52544	143
0	6852	52578	142
0	6864	52608	143
0	6865	52650	142
0	6873	52672	143
0	6874	52696	142
0	6880	52736	143
0	6881	52751	142
0	6886	52764	141
0	6895	52787	140
0	6900	52789	139
0	6905	52800	140
0	6910	52864	141
0	6914	52928	142
0	6915	52939	141
0	6925	52992	142
0	6926	53040	141
0	6932	53056	142
0	6933	53068	141
0	6939	53120	142
0	6941	53184	143
0	6942	53196	142
0	6946	53201	141
0	6950	53212	140
0	6955	53248	141
0	6960	53312	142
0	6965	53376	143
0	6972	53440	144
0	6974	53504	145
0	6978	53568	146
0	6979	53593	145
0	6989	53632	146
0	6991	53696	147
0	6992	53699	146
0	6997	53707	145
0	7002	53735	144
0	7007	53752	143
0	7012	53760	144
0	7013	53763	143
0	7021	53824	144
0	7022	53837	143
0	7027	53888	144
0	7031	53910	143
0	7036	53952	144
0	7037	53964	143
0	7051	54000	144
0	7055	54016	145
0	7064	54080	146
0	7070	54111	145
0	7076	54144	146
0	7077	54172	145
0	7082	54208	146
0	7083	54238	145
0	7091	54272	146
0	7095	54282	145
0	7105	54336	146
0	7106	54356	145
0	7117	54399	144
0	7123	54400	145
0	7124	54405	144
0	7136	54464	145
0	7140	54528	146
0	7143	54585	145
0	7149	54592	146
0	7152	54638	145
0	7157	54654	144
0	7163	54656	145
0	7166	54677	144
0	7174	54720	145
0	7175	54742	144
0	7181	54784	145
0	7182	54824	144
0	7188	54848	145
0	7192	54912	146
0	7195	54967	145
0	7201	54976	146
0	7202	55017	145
0	7208	55040	146
0	7210	55104	147
0	7211	55114	146
0	7215	55134	145
0	7223	55168	146
0	7225	55232	147
0	7227	55296	148
0	7232	55360	149
0	7236	55424	150
0	7239	55456	149
0	7244	55458	148
0	7252	55488	149
0	7258	55551	148
0	7266	55552	149
0	7269	55571	148
0	7274	55575	147
0	7275	55575	146
0	7284	55612	145
0	7289	55616	146
0	7293	55680	145
0	7297	55680	146
0	7299	55695	145
0	7306	55722	144
0	7310	55729	143
0	7315	55744	144
0	7316	55795	143
0	7328	55808	144
0	7332	55872	145
0	7336	55913	144
0	7346	55927	143
0	7351	55936	144
0	7363	56000	145
0	7365	56064	146
0	7367	56128	147
0	7368	56155	146
0	7379	56179	145
0	7385	56192	146
0	7386	56221	145
0	7393	56246	144
0	7399	56256	145
0	7402	56292	144
0	7407	56317	143
0	7413	56320	144
0	7414	56358	143
0	7422	56384	144
0	7425	56433	143
0	7431	56448	144
0	7434	56506	143
0	7440	56512	144
0	7442	56576	145
0	7445	56640	144
0	7449	56640	145
0	7453	56704	146
0	7454	56739	145
0	7460	56768	146
0	7466	56832	147
0	7467	56837	146
0	7474	56857	145
0	7480	56896	146
0	7483	56920	145
0	7490	56958	144
0	7496	56960	145
0	7505	57024	146
0	7506	57041	145
0	7514	57088	146
0	7519	57106	145
0	7524	57124	144
0	7529	57148	143
0	7534	57151	142
0	7539	57152	143
0	7545	57205	142
0	7551	57216	143
0	7552	57256	142
0	7557	57280	143
0	7563	57332	142
0	7569	57344	143
0	7575	57408	144
0	7578	57472	143
0	7582	57472	144
0	7588	57536	145
0	7594	57600	146
0	7595	57655	145
0	7601	57664	146
0	7602	57724	145
0	7610	57728	146
0	7611	57753	145
0	7617	57792	146
0	7618	57793	145
0	7626	57856	146
0	7630	57920	147
0	7631	57955	146
0	7638	57981	145
0	7644	57984	146
0	7648	58048	147
0	7649	58053	146
0	7654	58091	145
0	7660	58112	146
0	7663	58164	145
0	7669	58176	146
0	7670	58230	145
0	7671	58230	144
0	7680	58240	145
0	7682	58250	144
0	7694	58304	145
0	7695	58312	144
0	7701	58368	145
0	7705	58432	146
0	7706	58455	145
0	7711	58469	144
0	7715	58477	143
0	7719	58487	142
0	7724	58496	143
0	7728	58504	142
0	7745	58560	143
0	7749	58604	142
0	7754	58624	143
0	7756	58688	144
0	7764	58752	145
0	7769	58789	144