version 3
run General-2-20240513-00:14:32-20028
attr configname General
attr datetime 20240513-00:14:32
attr datetimef 20240513-001432
attr experiment General
attr inifile omnetpp.ini
attr iterationvars ""
attr iterationvarsd ""
attr iterationvarsf ""
attr measurement ""
attr network AirportControl
attr processid 20028
attr repetition 2
attr replication #2
attr resultdir results
attr runnumber 2
attr seedset 2
config network AirportControl
config repeat 10
config simtime-resolution s
config sim-time-limit 1440min
config **.PrioT_PCT.jobType 0
config **.PrioT_PCF.jobType 1
config **.PrioF_PCT.jobType 2
config **.PrioF_PCF.jobType 3
config **.PrioT_PCT.probArrival 0.04
config **.PrioT_PCF.probArrival 0.01
config **.PrioF_PCT.probArrival 0.01
config **.PrioF_PCF.probArrival 0.94
config **.PrioT_PCT.interarrivalRateRush 0.4min
config **.PrioT_PCF.interarrivalRateRush 0.4min
config **.PrioF_PCT.interarrivalRateRush 0.4min
config **.PrioF_PCF.interarrivalRateRush 0.4min
config **.PrioF_PCF.interarrivalRateNormal 1min
config **.PrioT_PCT.interarrivalRateNormal 1min
config **.PrioF_PCT.interarrivalRateNormal 1min
config **.PrioT_PCF.interarrivalRateNormal 1min
config **.PrioF_PCF.numberOfPeaks 4
config **.PrioF_PCT.numberOfPeaks 4
config **.PrioT_PCF.numberOfPeaks 4
config **.PrioT_PCT.numberOfPeaks 4
config **.PrioF_PCF.durationOfPeaks 150min
config **.PrioF_PCT.durationOfPeaks 150min
config **.PrioT_PCF.durationOfPeaks 150min
config **.PrioT_PCT.durationOfPeaks 150min
config **.PrioT_Server.serviceTime exponential(3min)
config **.PrioF_Server3.serviceTime exponential(5min)
config **.PrioF_Server2.serviceTime exponential(5min)
config **.PrioF_Server1.serviceTime exponential(5min)
config **.PrioF_Server0.serviceTime exponential(5min)
config **.NoPC_Server0.serviceTime exponential(3min)
config **.NoPC_Server3.serviceTime exponential(3min)
config **.NoPC_Server2.serviceTime exponential(3min)
config **.NoPC_Server1.serviceTime exponential(3min)
config **.PC_Server0.serviceTime exponential(1min)
config **.PC_Server1.serviceTime exponential(1min)

vector 0 AirportControl.PrioF_PQ queueLength:vector ETV
attr interpolationmode sample-hold
attr recordingmode vector
attr title "queue length"
vector 1 AirportControl.PrioT_PQ queueLength:vector ETV
attr interpolationmode sample-hold
attr recordingmode vector
attr title "queue length"
vector 2 AirportControl.NoPC_PQ queueLength:vector ETV
attr interpolationmode sample-hold
attr recordingmode vector
attr title "queue length"
vector 3 AirportControl.PC_PQ queueLength:vector ETV
attr interpolationmode sample-hold
attr recordingmode vector
attr title "queue length"
vector 4 AirportControl.sink lifeTime:vector ETV
attr interpolationmode none
attr recordingmode vector
attr title "lifetime of arrived jobs"
attr unit s
0	0	0	0
0	100	704	1
0	106	768	2
0	107	813	1
0	113	832	2
0	114	856	1
0	120	896	2
0	123	949	1
0	129	960	2
0	130	985	1
0	135	1010	0
0	143	1024	1
0	146	1072	0
0	174	1216	1
0	175	1277	0
0	181	1280	1
0	185	1344	2
0	187	1408	3
0	190	1447	2
0	195	1467	1
0	201	1472	2
0	202	1488	1
0	214	1518	0
0	226	1536	1
0	229	1587	0
0	235	1600	1
0	238	1635	0
0	309	2112	1
0	310	2118	0
0	318	2176	1
0	319	2200	0
0	325	2240	1
0	326	2265	0
0	336	2304	1
0	338	2368	2
0	339	2374	1
0	346	2427	0
0	352	2432	1
0	353	2457	0
0	359	2496	1
0	360	2525	0
0	366	2560	1
0	372	2624	2
0	373	2673	1
0	379	2688	2
0	380	2733	1
0	386	2752	2
0	389	2789	1
0	397	2816	2
0	400	2858	1
0	406	2880	2
0	408	2944	3
0	413	3008	4
0	414	3025	3
0	419	3040	2
0	427	3072	3
0	435	3136	4
0	437	3156	3
0	446	3200	4
0	447	3229	3
0	453	3264	4
0	457	3328	5
0	458	3334	4
0	463	3360	3
0	468	3392	4
0	473	3456	5
0	474	3459	4
0	478	3465	3
0	482	3497	2
0	487	3520	3
0	500	3584	4
0	502	3648	5
0	503	3653	4
0	508	3682	3
0	512	3703	2
0	517	3712	3
0	518	3738	2
0	529	3776	3
0	534	3840	4
0	538	3904	5
0	542	3968	6
0	543	4030	5
0	549	4032	6
0	550	4078	5
0	556	4096	6
0	558	4160	7
0	560	4224	8
0	566	4288	9
0	570	4352	10
0	571	4354	9
0	576	4361	8
0	584	4416	9
0	585	4417	8
0	593	4480	9
0	597	4513	8
0	604	4521	7
0	612	4544	8
0	616	4608	9
0	617	4630	8
0	627	4672	9
0	631	4736	10
0	632	4788	9
0	638	4800	10
0	640	4864	11
0	644	4928	12
0	647	4952	11
0	652	4963	10
0	658	4992	11
0	660	5056	12
0	661	5080	11
0	669	5120	12
0	670	5162	11
0	675	5170	10
0	680	5184	11
0	685	5248	12
0	688	5265	11
0	695	5309	10
0	701	5312	11
0	707	5376	12
0	708	5439	11
0	714	5440	12
0	715	5443	11
0	720	5452	10
0	728	5504	11
0	733	5546	10
0	741	5568	11
0	743	5632	12
0	744	5665	11
0	749	5673	10
0	755	5696	11
0	758	5705	10
0	766	5760	11
0	769	5808	10
0	775	5824	11
0	776	5852	10
0	782	5888	11
0	783	5922	10
0	791	5952	11
0	794	5999	10
0	803	6000	11
0	806	6013	10
0	810	6014	9
0	815	6016	10
0	819	6050	9
0	823	6052	8
0	828	6080	9
0	835	6139	8
0	840	6144	9
0	841	6163	8
0	852	6208	9
0	853	6239	8
0	861	6272	9
0	867	6311	8
0	873	6336	9
0	879	6400	10
0	881	6464	11
0	887	6528	12
0	888	6541	11
0	894	6592	12
0	901	6656	13
0	905	6720	14
0	909	6784	15
0	910	6810	14
0	916	6848	15
0	918	6912	16
0	923	6945	15
0	929	6976	16
0	930	7037	15
0	935	7038	14
0	941	7040	15
0	942	7080	14
0	950	7104	15
0	951	7113	14
0	965	7168	15
0	969	7232	16
0	973	7296	17
0	975	7360	18
0	976	7397	17
0	982	7424	18
0	986	7488	19
0	987	7494	18
0	998	7552	19
0	999	7569	18
0	1004	7594	17
0	1010	7616	18
0	1011	7632	17
0	1016	7648	16
0	1024	7680	17
0	1030	7744	18
0	1032	7808	19
0	1034	7872	20
0	1035	7875	19
0	1041	7936	20
0	1049	8000	21
0	1050	8063	20
0	1056	8064	21
0	1057	8074	20
0	1067	8128	21
0	1071	8192	22
0	1073	8256	23
0	1074	8296	22
0	1080	8320	23
0	1081	8325	22
0	1086	8355	21
0	1092	8384	22
0	1093	8413	21
0	1098	8448	22
0	1100	8512	23
0	1107	8576	24
0	1108	8618	23
0	1114	8640	24
0	1117	8669	23
0	1122	8681	22
0	1132	8704	23
0	1140	8768	24
0	1141	8820	23
0	1146	8821	22
0	1152	8832	23
0	1153	8883	22
0	1159	8896	23
0	1160	8905	22
0	1165	8907	21
0	1169	8910	20
0	1173	8910	19
0	1177	8918	18
0	1184	8947	17
0	1192	8960	18
0	1202	9001	17
0	1206	9005	16
0	1214	9024	17
0	1215	9042	16
0	1223	9088	17
0	1224	9101	16
0	1238	9152	17
0	1239	9197	16
0	1243	9208	15
0	1248	9216	16
0	1255	9268	15
0	1265	9280	16
0	1269	9315	15
0	1276	9344	16
0	1286	9408	17
0	1287	9466	16
0	1293	9472	17
0	1296	9526	16
0	1302	9536	17
0	1305	9579	16
0	1311	9600	17
0	1313	9664	18
0	1315	9728	19
0	1316	9768	18
0	1321	9775	17
0	1329	9792	18
0	1330	9808	17
0	1335	9842	16
0	1340	9856	17
0	1345	9920	18
0	1351	9984	19
0	1357	10048	20
0	1359	10112	21
0	1360	10126	20
0	1365	10136	19
0	1371	10176	20
0	1372	10181	19
0	1379	10191	18
0	1386	10214	17
0	1391	10218	16
0	1396	10223	15
0	1401	10240	16
0	1406	10304	17
0	1409	10323	16
0	1414	10339	15
0	1418	10351	14
0	1422	10359	13
0	1427	10368	14
0	1428	10372	13
0	1432	10379	12
0	1443	10432	13
0	1444	10490	12
0	1449	10496	13
0	1453	10505	12
0	1457	10514	11
0	1461	10530	10
0	1469	10547	9
0	1473	10548	8
0	1478	10560	9
0	1482	10624	10
0	1483	10625	9
0	1493	10669	8
0	1498	10688	9
0	1509	10752	10
0	1513	10796	9
0	1521	10816	10
0	1522	10838	9
0	1530	10880	10
0	1534	10931	9
0	1539	10944	10
0	1540	10956	9
0	1548	11008	10
0	1553	11072	11
0	1557	11107	10
0	1562	11136	11
0	1563	11141	10
0	1567	11154	9
0	1572	11200	10
0	1576	11224	9
0	1587	11264	10
0	1594	11286	9
0	1602	11328	10
0	1606	11365	9
0	1610	11368	8
0	1618	11392	9
0	1620	11456	10
0	1621	11457	9
0	1629	11520	10
0	1633	11553	9
0	1640	11578	8
0	1645	11584	9
0	1653	11648	10
0	1659	11712	11
0	1660	11737	10
0	1668	11776	11
0	1670	11840	12
0	1673	11895	11
0	1679	11904	12
0	1680	11917	11
0	1686	11968	12
0	1693	12000	13
0	1699	12032	14
0	1700	12056	13
0	1706	12096	14
0	1715	12160	15
0	1721	12224	16
0	1727	12288	17
0	1728	12322	16
0	1733	12330	15
0	1739	12352	16
0	1740	12399	15
0	1746	12416	16
0	1749	12431	15
0	1754	12456	14
0	1766	12480	15
0	1767	12484	14
0	1775	12544	15
0	1776	12551	14
0	1781	12556	13
0	1787	12608	14
0	1791	12672	15
0	1792	12698	14
0	1800	12736	15
0	1803	12756	14
0	1811	12800	15
0	1815	12864	16
0	1817	12928	17
0	1818	12951	16
0	1826	12992	17
0	1828	13056	18
0	1830	13120	19
0	1831	13176	18
0	1837	13184	19
0	1839	13248	20
0	1845	13312	21
0	1846	13314	20
0	1851	13337	19
0	1857	13376	20
0	1858	13385	19
0	1863	13386	18
0	1868	13411	17
0	1876	13440	18
0	1882	13502	17
0	1888	13504	18
0	1889	13526	17
0	1893	13548	16
0	1901	13568	17
0	1906	13632	18
0	1907	13660	17
0	1911	13671	16
0	1916	13696	17
0	1924	13760	18
0	1928	13824	19
0	1934	13888	20
0	1940	13952	21
0	1941	13984	20
0	1946	14014	19
0	1952	14016	20
0	1953	14026	19
0	1967	14080	20
0	1970	14096	19
0	1975	14102	18
0	1980	14142	17
0	1988	14144	18
0	1992	14208	19
0	1993	14271	18
0	1999	14272	19
0	2003	14336	20
0	2005	14400	21
0	2009	14464	22
0	2010	14521	21
0	2015	14524	20
0	2021	14528	21
0	2024	14574	20
0	2030	14592	21
0	2033	14643	20
0	2039	14656	21
0	2040	14702	20
0	2046	14720	21
0	2050	14784	22
0	2054	14848	23
0	2056	14912	24
0	2060	14976	25
0	2068	15012	24
0	2075	15037	23
0	2081	15040	24
0	2082	15046	23
0	2087	15061	22
0	2093	15104	23
0	2094	15121	22
0	2099	15168	23
0	2100	15190	22
0	2104	15208	21
0	2109	15232	22
0	2110	15251	21
0	2115	15296	22
0	2120	15360	23
0	2128	15424	24
0	2133	15488	25
0	2134	15503	24
0	2142	15552	25
0	2145	15581	24
0	2150	15582	23
0	2160	15616	24
0	2164	15680	25
0	2167	15699	24
0	2176	15743	23
0	2182	15744	24
0	2186	15808	25
0	2188	15872	26
0	2189	15876	25
0	2197	15936	26
0	2199	16000	27
0	2200	16023	26
0	2207	16052	25
0	2213	16064	26
0	2215	16128	27
0	2219	16192	28
0	2220	16196	27
0	2225	16255	26
0	2231	16256	27
0	2235	16320	28
0	2237	16384	29
0	2239	16448	30
0	2244	16512	31
0	2245	16527	30
0	2250	16561	29
0	2256	16576	30
0	2259	16603	29
0	2269	16640	30
0	2272	16686	29
0	2278	16704	30
0	2279	16712	29
0	2287	16768	30
0	2288	16771	29
0	2298	16832	30
0	2302	16896	31
0	2303	16919	30
0	2308	16937	29
0	2315	16957	28
0	2321	16960	29
0	2327	17024	30
0	2329	17088	31
0	2330	17143	30
0	2336	17152	31
0	2337	17181	30
0	2342	17183	29
0	2349	17202	28
0	2354	17216	29
0	2358	17260	28
0	2366	17280	29
0	2367	17285	28
0	2371	17289	27
0	2382	17344	28
0	2383	17352	27
0	2387	17358	26
0	2392	17408	27
0	2393	17412	26
0	2406	17439	25
0	2410	17471	24
0	2415	17472	25
0	2416	17485	24
0	2424	17536	25
0	2425	17543	24
0	2433	17600	25
0	2434	17606	24
0	2444	17660	23
0	2449	17664	24
0	2453	17701	23
0	2458	17728	24
0	2459	17738	23
0	2467	17792	24
0	2469	17856	25
0	2480	17918	24
0	2485	17920	23
0	2489	17920	24
0	2492	17933	23
0	2499	17980	22
0	2504	17984	23
0	2509	18000	24
0	2517	18048	25
0	2519	18112	26
0	2523	18150	25
0	2530	18164	24
0	2535	18176	25
0	2540	18240	26
0	2541	18256	25
0	2545	18262	24
0	2549	18267	23
0	2557	18304	24
0	2569	18368	25
0	2573	18399	24
0	2580	18432	25
0	2589	18496	26
0	2593	18560	27
0	2595	18624	28
0	2597	18688	29
0	2599	18752	30
0	2600	18792	29
0	2606	18816	30
0	2610	18880	31
0	2614	18944	32
0	2616	19008	33
0	2617	19023	32
0	2623	19072	33
0	2625	19136	34
0	2627	19200	35
0	2631	19264	36
0	2633	19328	37
0	2635	19392	38
0	2637	19456	39
0	2641	19513	38
0	2646	19519	37
0	2652	19520	38
0	2656	19584	39
0	2657	19589	38
0	2662	19596	37
0	2667	19597	36
0	2672	19612	35
0	2680	19648	36
0	2689	19700	35
0	2697	19712	36
0	2698	19714	35
0	2705	19767	34
0	2711	19776	35
0	2715	19840	36
0	2716	19843	35
0	2721	19901	34
0	2726	19904	35
0	2727	19924	34
0	2732	19934	33
0	2745	19968	34
0	2746	19969	33
0	2753	19980	32
0	2757	19989	31
0	2764	20010	30
0	2769	20032	31
0	2778	20056	30
0	2783	20061	29
0	2793	20096	30
0	2794	20122	29
0	2802	20160	30
0	2808	20224	31
0	2809	20261	30
0	2815	20288	31
0	2818	20351	30
0	2824	20352	31
0	2827	20391	30
0	2833	20416	31
0	2834	20478	30
0	2840	20480	31
0	2844	20544	32
0	2848	20608	33
0	2849	20639	32
0	2856	20653	31
0	2862	20672	32
0	2866	20736	33
0	2867	20755	32
0	2873	20800	33
0	2877	20864	34
0	2878	20917	33
0	2884	20928	34
0	2886	20992	35
0	2893	21056	36
0	2894	21117	35
0	2900	21120	36
0	2908	21184	37
0	2911	21229	36
0	2916	21248	35
0	2920	21248	36
0	2924	21312	37
0	2925	21340	36
0	2932	21352	35
0	2938	21376	36
0	2942	21440	37
0	2944	21504	38
0	2946	21568	39
0	2949	21581	38
0	2954	21594	37
0	2964	21632	38
0	2965	21679	37
0	2972	21695	36
0	2978	21696	37
0	2980	21760	38
0	2983	21779	37
0	2993	21824	38
0	2995	21888	39
0	2996	21912	38
0	3001	21915	37
0	3006	21939	36
0	3012	21952	37
0	3015	22003	36
0	3021	22016	37
0	3022	22027	36
0	3026	22059	35
0	3031	22080	36
0	3039	22144	37
0	3040	22154	36
0	3047	22159	35
0	3054	22173	34
0	3061	22190	33
0	3069	22208	34
0	3070	22209	33
0	3074	22212	32
0	3085	22272	33
0	3087	22336	34
0	3090	22379	33
0	3096	22400	34
0	3102	22464	35
0	3105	22490	34
0	3114	22528	35
0	3115	22539	34
0	3126	22566	33
0	3134	22592	34
0	3137	22637	33
0	3142	22651	32
0	3148	22656	33
0	3149	22688	32
0	3154	22720	33
0	3155	22736	32
0	3160	22784	33
0	3165	22848	34
0	3166	22853	33
0	3171	22912	34
0	3181	22976	35
0	3186	23030	34
0	3191	23039	33
0	3197	23040	34
0	3198	23053	33
0	3204	23104	34
0	3206	23168	35
0	3209	23186	34
0	3217	23232	35
0	3221	23296	36
0	3222	23300	35
0	3227	23336	34
0	3235	23360	35
0	3238	23408	34
0	3245	23418	33
0	3251	23424	34
0	3255	23488	35
0	3259	23552	36
0	3261	23616	37
0	3262	23667	36
0	3268	23680	37
0	3272	23744	38
0	3274	23808	39
0	3278	23872	40
0	3280	23936	41
0	3281	23970	40
0	3286	23971	39
0	3291	23974	38
0	3301	24000	39
0	3303	24000	40
0	3311	24064	41
0	3321	24128	42
0	3322	24133	41
0	3331	24174	40
0	3337	24192	41
0	3341	24256	42
0	3343	24320	43
0	3344	24344	42
0	3352	24384	43
0	3356	24448	44
0	3359	24465	43
0	3367	24512	44
0	3368	24514	43
0	3375	24575	42
0	3381	24576	43
0	3382	24585	42
0	3387	24593	41
0	3393	24640	42
0	3395	24704	43
0	3396	24761	42
0	3402	24768	43
0	3403	24808	42
0	3413	24832	43
0	3417	24896	44
0	3419	24960	45
0	3420	24963	44
0	3425	24994	43
0	3431	25024	44
0	3432	25047	43
0	3436	25058	42
0	3444	25088	43
0	3448	25142	42
0	3453	25152	43
0	3457	25175	42
0	3464	25194	41
0	3468	25207	40
0	3476	25216	41
0	3483	25280	42
0	3486	25305	41
0	3492	25344	42
0	3498	25408	43
0	3502	25472	44
0	3507	25536	45
0	3508	25565	44
0	3520	25600	45
0	3524	25664	46
0	3525	25697	45
0	3531	25728	46
0	3533	25792	47
0	3534	25808	46
0	3539	25816	45
0	3546	25846	44
0	3552	25856	45
0	3553	25899	44
0	3558	25920	43
0	3562	25920	44
0	3569	25965	43
0	3575	25984	44
0	3578	26020	43
0	3586	26048	44
0	3587	26058	43
0	3595	26112	44
0	3596	26165	43
0	3602	26176	44
0	3606	26240	45
0	3609	26254	44
0	3617	26304	45
0	3619	26368	46
0	3623	26432	47
0	3624	26438	46
0	3630	26496	47
0	3631	26508	46
0	3636	26509	45
0	3641	26531	44
0	3651	26560	45
0	3654	26594	44
0	3659	26600	43
0	3666	26612	42
0	3674	26624	43
0	3675	26629	42
0	3683	26688	43
0	3684	26704	42
0	3693	26737	41
0	3699	26752	42
0	3702	26808	41
0	3708	26816	42
0	3712	26880	43
0	3716	26944	44
0	3717	26952	43
0	3724	26970	42
0	3733	27008	43
0	3734	27013	42
0	3739	27059	41
0	3745	27072	42
0	3746	27083	41
0	3750	27103	40
0	3755	27136	41
0	3756	27157	40
0	3760	27185	39
0	3764	27192	38
0	3768	27195	37
0	3779	27200	38
0	3780	27245	37
0	3785	27264	38
0	3796	27328	39
0	3800	27356	38
0	3804	27384	37
0	3812	27392	38
0	3826	27456	39
0	3829	27476	38
0	3839	27520	39
0	3841	27584	40
0	3842	27595	39
0	3849	27623	38
0	3854	27639	37
0	3860	27648	38
0	3868	27712	39
0	3870	27776	40
0	3872	27840	41
0	3875	27899	40
0	3881	27904	41
0	3883	27968	42
0	3885	28032	43
0	3887	28096	44
0	3888	28098	43
0	3893	28138	42
0	3901	28160	43
0	3905	28224	44
0	3907	28288	45
0	3909	28352	46
0	3910	28368	45
0	3915	28376	44
0	3920	28396	43
0	3926	28416	44
0	3928	28480	45
0	3937	28544	46
0	3947	28608	47
0	3949	28672	48
0	3953	28736	49
0	3954	28779	48
0	3960	28800	49
0	3962	28864	50
0	3964	28928	51
0	3965	28989	50
0	3971	28992	51
0	3972	29053	50
0	3978	29056	51
0	3982	29120	52
0	3984	29184	53
0	3987	29238	52
0	3993	29248	53
0	3995	29312	54
0	3996	29314	53
0	4004	29376	54
0	4005	29379	53
0	4013	29440	54
0	4014	29458	53
0	4022	29504	54
0	4024	29568	55
0	4026	29632	56
0	4027	29688	55
0	4032	29693	54
0	4038	29696	55
0	4040	29760	56
0	4041	29772	55
0	4046	29824	56
0	4051	29888	57
0	4052	29937	56
0	4056	29951	55
0	4061	29952	56
0	4065	30000	55
0	4067	30000	56
0	4074	30016	57
0	4086	30080	58
0	4094	30144	59
0	4095	30164	58
0	4102	30200	57
0	4107	30208	58
0	4108	30237	57
0	4116	30272	58
0	4121	30307	57
0	4134	30336	58
0	4138	30400	59
0	4143	30460	58
0	4151	30464	59
0	4155	30528	60
0	4156	30584	59
0	4162	30592	60
0	4166	30656	61
0	4167	30664	60
0	4172	30683	59
0	4178	30720	60
0	4179	30777	59
0	4185	30784	60
0	4186	30786	59
0	4191	30823	58
0	4201	30848	59
0	4202	30910	58
0	4208	30912	59
0	4211	30948	58
0	4217	30976	59
0	4222	30999	58
0	4228	31040	59
0	4232	31104	60
0	4234	31168	61
0	4235	31170	60
0	4240	31182	59
0	4247	31205	58
0	4253	31232	59
0	4255	31296	60
0	4258	31309	59
0	4266	31360	60
0	4267	31386	59
0	4277	31424	60
0	4279	31488	61
0	4286	31552	62
0	4290	31616	63
0	4292	31680	64
0	4293	31704	63
0	4301	31744	64
0	4303	31808	65
0	4304	31865	64
0	4310	31872	65
0	4311	31879	64
0	4320	31889	63
0	4330	31936	64
0	4331	31940	63
0	4336	31960	62
0	4342	32000	63
0	4343	32028	62
0	4352	32064	63
0	4354	32075	62
0	4362	32128	63
0	4366	32192	64
0	4368	32256	65
0	4369	32292	64
0	4374	32298	63
0	4380	32320	64
0	4385	32384	63
0	4389	32384	64
0	4397	32448	65
0	4398	32463	64
0	4406	32512	65
0	4408	32576	66
0	4411	32637	65
0	4417	32640	66
0	4419	32704	67
0	4423	32768	68
0	4424	32804	67
0	4430	32832	68
0	4431	32865	67
0	4438	32895	66
0	4444	32896	67
0	4448	32960	68
0	4453	33024	69
0	4454	33029	68
0	4459	33069	67
0	4465	33088	68
0	4471	33152	69
0	4472	33173	68
0	4480	33216	69
0	4481	33234	68
0	4492	33279	67
0	4498	33280	68
0	4506	33344	69
0	4508	33408	70
0	4510	33472	71
0	4511	33494	70
0	4517	33536	71
0	4518	33598	70
0	4524	33600	71
0	4530	33664	72
0	4532	33728	73
0	4533	33764	72
0	4539	33792	73
0	4540	33832	72
0	4546	33856	73
0	4550	33920	74
0	4552	33984	75
0	4553	34033	74
0	4559	34048	75
0	4560	34072	74
0	4569	34100	73
0	4575	34112	74
0	4579	34176	75
0	4580	34202	74
0	4586	34240	75
0	4588	34304	76
0	4590	34368	77
0	4591	34381	76
0	4599	34432	77
0	4600	34475	76
0	4608	34496	77
0	4619	34560	78
0	4622	34622	77
0	4628	34624	78
0	4632	34688	79
0	4633	34739	78
0	4639	34752	79
0	4643	34816	80
0	4644	34834	79
0	4649	34846	78
0	4654	34876	77
0	4660	34880	78
0	4665	34939	77
0	4670	34944	76
0	4674	34944	77
0	4677	34949	76
0	4685	35008	77
0	4686	35044	76
0	4694	35072	77
0	4695	35075	76
0	4703	35136	77
0	4709	35200	78
0	4710	35236	77
0	4716	35264	78
0	4718	35328	79
0	4720	35392	80
0	4728	35456	81
0	4729	35497	80
0	4737	35520	81
0	4738	35552	80
0	4744	35584	81
0	4746	35648	82
0	4747	35681	81
0	4753	35712	82
0	4754	35722	81
0	4762	35776	82
0	4768	35840	83
0	4769	35847	82
0	4775	35904	83
0	4776	35913	82
0	4781	35961	81
0	4787	35968	82
0	4788	35984	81
0	4799	36000	82
0	4805	36032	83
0	4807	36096	84
0	4818	36160	85
0	4819	36197	84
0	4827	36224	85
0	4830	36280	84
0	4836	36288	85
0	4844	36352	86
0	4846	36416	87
0	4847	36426	86
0	4853	36480	87
0	4859	36544	88
0	4860	36545	87
0	4867	36603	86
0	4873	36608	87
0	4874	36625	86
0	4884	36672	87
0	4885	36685	86
0	4891	36736	87
0	4893	36800	88
0	4897	36864	89
0	4899	36928	90
0	4900	36979	89
0	4906	36992	90
0	4907	36998	89
0	4912	36999	88
0	4919	37044	87
0	4925	37056	88
0	4929	37120	89
0	4930	37127	88
0	4935	37131	87
0	4944	37161	86
0	4949	37176	85
0	4955	37184	86
0	4961	37248	87
0	4963	37312	88
0	4964	37343	87
0	4970	37376	88
0	4976	37440	89
0	4980	37500	88
0	4988	37504	89
0	4989	37530	88
0	4994	37533	87
0	4999	37535	86
0	5004	37548	85
0	5013	37568	86
0	5014	37570	85
0	5026	37608	84
0	5031	37609	83
0	5041	37632	84
0	5047	37696	85
0	5050	37732	84
0	5058	37760	85
0	5059	37814	84
0	5065	37824	85
0	5067	37888	86
0	5069	37952	87
0	5072	37973	86
0	5080	38016	87
0	5082	38080	88
0	5083	38093	87
0	5093	38144	88
0	5095	38208	89
0	5097	38272	90
0	5098	38286	89
0	5105	38321	88
0	5111	38336	89
0	5112	38352	88
0	5119	38393	87
0	5125	38400	88
0	5128	38437	87
0	5135	38450	86
0	5140	38456	85
0	5146	38464	86
0	5147	38482	85
0	5152	38483	84
0	5157	38528	85
0	5158	38537	84
0	5162	38539	83
0	5170	38592	84
0	5171	38604	83
0	5179	38656	84
0	5183	38712	83
0	5188	38720	84
0	5190	38731	83
0	5197	38784	84
0	5201	38806	83
0	5209	38848	84
0	5210	38865	83
0	5214	38898	82
0	5218	38907	81
0	5223	38912	82
0	5224	38915	81
0	5232	38976	82
0	5239	39007	81
0	5243	39013	80
0	5247	39025	79
0	5259	39040	80
0	5262	39104	79
0	5266	39104	80
0	5271	39164	79
0	5276	39168	80
0	5280	39183	79
0	5291	39232	80
0	5292	39258	79
0	5300	39296	80
0	5311	39360	81
0	5315	39366	80
0	5325	39424	81
0	5331	39488	82
0	5335	39552	83
0	5336	39598	82
0	5341	39612	81
0	5347	39616	82
0	5348	39680	81
0	5352	39680	82
0	5362	39744	83
0	5363	39799	82
0	5369	39808	83
0	5373	39872	84
0	5375	39936	85
0	5377	40000	86
0	5378	40041	85
0	5383	40044	84
0	5388	40046	83
0	5394	40064	84
0	5395	40080	83
0	5400	40106	82
0	5404	40112	81
0	5409	40128	82
0	5413	40189	81
0	5418	40192	82
0	5426	40256	83
0	5427	40260	82
0	5435	40320	83
0	5437	40384	84
0	5441	40448	85
0	5442	40457	84
0	5455	40512	85
0	5457	40576	86
0	5463	40640	87
0	5467	40704	88
0	5468	40720	87
0	5473	40735	86
0	5479	40768	87
0	5483	40832	88
0	5486	40860	87
0	5494	40896	88
0	5495	40906	87
0	5505	40960	88
0	5508	41023	87
0	5514	41024	88
0	5516	41088	89
0	5518	41152	90
0	5520	41216	91
0	5523	41276	90
0	5529	41280	91
0	5531	41344	92
0	5532	41383	91
0	5538	41408	92
0	5539	41414	91
0	5545	41472	92
0	5547	41536	93
0	5549	41600	94
0	5552	41643	93
0	5558	41664	94
0	5560	41728	95
0	5561	41758	94
0	5568	41788	93
0	5574	41792	94
0	5575	41854	93
0	5580	41856	94
0	5584	41887	93
0	5592	41920	94
0	5594	41930	93
0	5604	41967	92
0	5610	41984	93
0	5615	42000	94
0	5618	42021	93
0	5624	42048	94
0	5625	42089	93
0	5641	42112	94
0	5645	42138	93
0	5650	42176	94
0	5651	42202	93
0	5663	42239	92
0	5669	42240	93
0	5677	42304	94
0	5681	42368	95
0	5683	42432	96
0	5684	42469	95
0	5690	42496	96
0	5691	42528	95
0	5699	42560	96
0	5701	42624	97
0	5703	42688	98
0	5707	42752	99
0	5708	42770	98
0	5715	42807	97
0	5721	42816	98
0	5724	42842	97
0	5730	42880	98
0	5731	42881	97
0	5738	42926	96
0	5744	42944	97
0	5745	42957	96
0	5753	43008	97
0	5754	43030	96
0	5760	43072	97
0	5766	43136	98
0	5767	43185	97
0	5775	43200	98
0	5777	43264	99
0	5778	43268	98
0	5783	43293	97
0	5788	43309	96
0	5793	43328	97
0	5794	43345	96
0	5799	43392	97
0	5800	43411	96
0	5808	43456	97
0	5813	43520	98
0	5827	43584	99
0	5828	43586	98
0	5836	43648	99
0	5837	43652	98
0	5849	43712	99
0	5853	43776	100
0	5855	43840	101
0	5856	43853	100
0	5861	43870	99
0	5867	43904	100
0	5870	43942	99
0	5877	43958	98
0	5884	43964	97
0	5890	43968	98
0	5893	44029	97
0	5899	44032	98
0	5900	44065	97
0	5909	44076	96
0	5915	44096	97
0	5916	44154	96
0	5922	44160	97
0	5928	44224	98
0	5930	44288	99
0	5933	44305	98
0	5938	44327	97
0	5944	44352	98
0	5947	44372	97
0	5955	44416	98
0	5956	44432	97
0	5961	44480	96
0	5965	44480	97
0	5968	44486	96
0	5972	44513	95
0	5977	44544	96
0	5982	44608	97
0	5989	44672	98
0	5990	44680	97
0	5996	44736	98
0	6000	44800	99
0	6003	44859	98
0	6009	44864	99
0	6010	44866	98
0	6015	44891	97
0	6029	44928	98
0	6030	44967	97
0	6036	44992	98
0	6042	45045	97
0	6047	45053	96
0	6053	45056	97
0	6059	45120	98
0	6060	45133	97
0	6072	45184	98
0	6078	45248	99
0	6079	45283	98
0	6084	45291	97
0	6090	45312	98
0	6091	45348	97
0	6098	45373	96
0	6106	45376	97
0	6107	45383	96
0	6117	45440	97
0	6120	45479	96
0	6125	45486	95
0	6133	45504	96
0	6134	45512	95
0	6139	45564	94
0	6145	45568	95
0	6146	45579	94
0	6154	45632	95
0	6156	45696	96
0	6159	45754	95
0	6165	45760	96
0	6166	45766	95
0	6172	45824	96
0	6173	45848	95
0	6177	45864	94
0	6182	45888	95
0	6184	45952	96
0	6185	45962	95
0	6196	46016	96
0	6197	46025	95
0	6201	46066	94
0	6208	46075	93
0	6213	46080	94
0	6217	46139	93
0	6222	46144	94
0	6223	46155	93
0	6227	46172	92
0	6232	46208	93
0	6240	46272	94
0	6242	46336	95
0	6243	46353	94
0	6257	46400	95
0	6262	46464	96
0	6268	46502	95
0	6275	46521	94
0	6281	46528	95
0	6282	46535	94
0	6287	46592	95
0	6288	46618	94
0	6293	46656	95
0	6294	46691	94
0	6298	46720	93
0	6302	46720	94
0	6305	46784	95
0	6306	46785	94
0	6319	46847	93
0	6324	46848	94
0	6325	46852	93
0	6333	46912	94
0	6337	46930	93
0	6344	46951	92
0	6349	46976	93
0	6357	47040	94
0	6365	47104	95
0	6366	47120	94
0	6371	47168	95
0	6376	47232	96
0	6377	47236	95
0	6391	47296	94
0	6395	47296	95
0	6400	47329	94
0	6406	47360	95
0	6410	47424	96
0	6414	47488	97
0	6418	47552	98
0	6419	47560	97
0	6427	47616	98
0	6428	47661	97
0	6434	47680	98
0	6435	47720	97
0	6443	47744	98
0	6446	47804	97
0	6452	47808	98
0	6455	47864	97
0	6461	47872	98
0	6462	47924	97
0	6468	47936	98
0	6471	47966	97
0	6481	48000	98
0	6483	48000	99
0	6485	48002	98
0	6489	48002	97
0	6505	48064	98
0	6506	48105	97
0	6512	48128	98
0	6517	48160	97
0	6524	48180	96
0	6530	48192	97
0	6531	48202	96
0	6537	48256	97
0	6543	48320	98
0	6546	48369	97
0	6547	48369	96
0	6556	48372	95
0	6562	48384	96
0	6569	48446	95
0	6575	48448	96
0	6579	48512	97
0	6580	48572	96
0	6588	48576	97
0	6591	48598	96
0	6599	48640	97
0	6601	48704	98
0	6602	48748	97
0	6608	48768	98
0	6613	48822	97
0	6619	48832	98
0	6623	48896	99
0	6627	48960	100
0	6628	49004	99
0	6636	49024	100
0	6640	49088	101
0	6641	49095	100
0	6646	49104	99
0	6656	49152	100
0	6658	49216	101
0	6659	49226	100
0	6666	49278	99
0	6672	49280	100
0	6673	49318	99
0	6678	49332	98
0	6684	49344	99
0	6688	49408	100
0	6692	49472	101
0	6699	49536	102
0	6701	49600	103
0	6702	49606	102
0	6711	49640	101
0	6719	49664	102
0	6723	49728	103
0	6726	49780	102
0	6732	49792	103
0	6736	49856	104
0	6738	49920	105
0	6739	49931	104
0	6745	49984	105
0	6747	50048	106
0	6748	50049	105
0	6753	50068	104
0	6758	50072	103
0	6763	50091	102
0	6771	50112	103
0	6772	50141	102
0	6777	50176	103
0	6778	50180	102
0	6783	50240	103
0	6788	50304	104
0	6792	50351	103
0	6797	50368	104
0	6801	50392	103
0	6806	50432	104
0	6811	50496	105
0	6812	50503	104
0	6820	50560	105
0	6821	50566	104
0	6826	50624	105
0	6828	50626	104
0	6834	50653	103
0	6838	50657	102
0	6849	50688	103
0	6850	50699	102
0	6858	50752	103
0	6864	50775	102
0	6871	50803	101
0	6877	50816	102
0	6878	50826	101
0	6883	50880	102
0	6890	50944	103
0	6893	50977	102
0	6902	51008	103
0	6905	51065	102
0	6911	51072	103
0	6912	51104	102
0	6922	51136	103
0	6923	51167	102
0	6930	51200	103
0	6935	51264	104
0	6939	51328	105
0	6940	51346	104
0	6950	51392	105
0	6952	51456	106
0	6954	51520	107
0	6955	51532	106
0	6960	51536	105
0	6965	51574	104
0	6970	51584	105
0	6975	51648	106
0	6978	51706	105
0	6984	51712	106
0	6985	51736	105
0	6989	51748	104
0	7000	51776	105
0	7001	51783	104
0	7013	51840	105
0	7015	51904	106
0	7018	51942	105
0	7024	51968	106
0	7030	52032	107
0	7032	52096	108
0	7033	52151	107
0	7039	52160	108
0	7043	52224	109
0	7044	52285	108
0	7050	52288	109
0	7052	52352	110
0	7055	52379	109
0	7060	52384	108
0	7070	52416	109
0	7072	52480	110
0	7083	52544	111
0	7085	52608	112
0	7086	52624	111
0	7091	52634	110
0	7096	52648	109
0	7104	52672	110
0	7106	52736	111
0	7110	52800	112
0	7113	52843	111
0	7121	52864	112
0	7122	52902	111
0	7128	52928	112
0	7129	52978	111
0	7135	52992	112
0	7141	53056	113
0	7142	53100	112
0	7148	53120	113
0	7152	53184	114
0	7154	53248	115
0	7155	53269	114
0	7161	53312	115
0	7163	53376	116
0	7167	53440	117
0	7168	53454	116
0	7173	53490	115
0	7179	53504	116
0	7183	53568	117
0	7184	53592	116
0	7190	53632	117
0	7192	53696	118
0	7195	53746	117
0	7201	53760	118
0	7203	53824	119
0	7205	53888	120
0	7206	53951	119
0	7212	53952	120
0	7221	54000	121
0	7225	54016	122
0	7229	54080	123
0	7235	54112	122
0	7241	54144	123
0	7243	54208	124
0	7245	54272	125
0	7246	54308	124
0	7251	54316	123
0	7257	54336	124
0	7258	54397	123
0	7263	54400	124
0	7274	54464	125
0	7278	54528	126
0	7280	54540	125
0	7289	54592	126
0	7290	54631	125
0	7296	54656	126
0	7297	54667	125
0	7303	54720	126
0	7307	54784	127
0	7309	54811	126
0	7316	54848	127
0	7317	54886	126
0	7323	54912	127
0	7324	54921	126
0	7331	54946	125
0	7338	54959	124
0	7342	54970	123
0	7347	54976	124
0	7351	55036	123
0	7359	55040	124
0	7363	55086	123
0	7371	55104	124
0	7372	55136	123
0	7380	55168	124
0	7381	55187	123
0	7385	55209	122
0	7389	55231	121
0	7394	55232	122
0	7398	55259	121
0	7402	55290	120
0	7407	55296	121
0	7420	55347	120
0	7425	55360	121
0	7429	55388	120
0	7439	55424	121
0	7445	55488	122
0	7452	55552	123
0	7458	55616	124
0	7459	55617	123
0	7466	55637	122
0	7472	55680	123
0	7473	55715	122
0	7480	55723	121
0	7486	55744	122
0	7487	55759	121
0	7495	55808	122
0	7496	55809	121
0	7504	55872	122
0	7508	55936	123
0	7510	56000	124
0	7511	56025	123
0	7520	56040	122
0	7526	56064	123
0	7527	56071	122
0	7537	56128	123
0	7538	56146	122
0	7543	56179	121
0	7548	56188	120
0	7554	56192	121
0	7555	56197	120
0	7567	56256	121
0	7572	56307	120
0	7578	56320	121
0	7579	56324	120
0	7584	56369	119
0	7589	56380	118
0	7595	56384	119
0	7597	56448	120
0	7605	56512	121
0	7606	56537	120
0	7614	56576	121
0	7615	56601	120
0	7621	56640	121
0	7622	56647	120
0	7627	56689	119
0	7633	56704	120
0	7639	56768	121
0	7640	56823	120
0	7645	56829	119
0	7651	56832	120
0	7652	56859	119
0	7660	56896	120
0	7666	56960	121
0	7671	57024	122
0	7672	57047	121
0	7680	57088	122
0	7682	57152	123
0	7687	57180	122
0	7692	57210	121
0	7698	57216	122
0	7699	57239	121
0	7706	57261	120
0	7713	57280	121
0	7714	57282	120
0	7725	57344	121
0	7726	57399	120
0	7731	57408	121
0	7738	57472	122
0	7740	57536	123
0	7741	57574	122
0	7747	57600	123
0	7750	57662	122
0	7756	57664	123
0	7757	57696	122
0	7767	57728	123
0	7771	57792	124
0	7772	57815	123
0	7777	57847	122
0	7783	57856	123
0	7784	57912	122
0	7789	57920	123
0	7793	57947	122
0	7801	57984	123
0	7804	58012	122
0	7810	58048	123
0	7811	58059	122
0	7815	58072	121
0	7819	58080	120
0	7827	58112	121
0	7828	58118	120
0	7833	58176	121
0	7834	58230	120
0	7839	58240	121
0	7840	58245	120
0	7844	58248	119
0	7848	58258	118
0	7855	58304	117
0	7859	58304	118
0	7861	58315	117
0	7869	58368	118
0	7873	58414	117
0	7877	58418	116
0	7888	58432	117
0	7889	58441	116
0	7900	58496	117
0	7905	58560	118
0	7909	58568	117
0	7916	58579	116
0	7920	58606	115
0	7924	58607	114
0	7929	58624	115
0	7940	58688	116
0	7941	58724	115
0	7949	58752	116
0	7966	58816	117
0	7977	58880	118
0	7978	58894	117
0	7983	58915	116
0	7988	58924	115
0	7996	58944	116
0	8002	59008	117
0	8005	59066	116
0	8011	59072	117
0	8012	59094	116
0	8020	59136	117
0	8021	59141	116
0	8026	59193	115
0	8031	59200	114
0	8035	59200	115
0	8038	59201	114