version 3
run General-3-20240513-00:14:38-20028
attr configname General
attr datetime 20240513-00:14:38
attr datetimef 20240513-001438
attr experiment General
attr inifile omnetpp.ini
attr iterationvars ""
attr iterationvarsd ""
attr iterationvarsf ""
attr measurement ""
attr network AirportControl
attr processid 20028
attr repetition 3
attr replication #3
attr resultdir results
attr runnumber 3
attr seedset 3
config network AirportControl
config repeat 10
config simtime-resolution s
config sim-time-limit 1440min
config **.PrioT_PCT.jobType 0
config **.PrioT_PCF.jobType 1
config **.PrioF_PCT.jobType 2
config **.PrioF_PCF.jobType 3
config **.PrioT_PCT.probArrival 0.04
config **.PrioT_PCF.probArrival 0.01
config **.PrioF_PCT.probArrival 0.01
config **.PrioF_PCF.probArrival 0.94
config **.PrioT_PCT.interarrivalRateRush 0.4min
config **.PrioT_PCF.interarrivalRateRush 0.4min
config **.PrioF_PCT.interarrivalRateRush 0.4min
config **.PrioF_PCF.interarrivalRateRush 0.4min
config **.PrioF_PCF.interarrivalRateNormal 1min
config **.PrioT_PCT.interarrivalRateNormal 1min
config **.PrioF_PCT.interarrivalRateNormal 1min
config **.PrioT_PCF.interarrivalRateNormal 1min
config **.PrioF_PCF.numberOfPeaks 4
config **.PrioF_PCT.numberOfPeaks 4
config **.PrioT_PCF.numberOfPeaks 4
config **.PrioT_PCT.numberOfPeaks 4
config **.PrioF_PCF.durationOfPeaks 150min
config **.PrioF_PCT.durationOfPeaks 150min
config **.PrioT_PCF.durationOfPeaks 150min
config **.PrioT_PCT.durationOfPeaks 150min
config **.PrioT_Server.serviceTime exponential(3min)
config **.PrioF_Server3.serviceTime exponential(5min)
config **.PrioF_Server2.serviceTime exponential(5min)
config **.PrioF_Server1.serviceTime exponential(5min)
config **.PrioF_Server0.serviceTime exponential(5min)
config **.NoPC_Server0.serviceTime exponential(3min)
config **.NoPC_Server3.serviceTime exponential(3min)
config **.NoPC_Server2.serviceTime exponential(3min)
config **.NoPC_Server1.serviceTime exponential(3min)
config **.PC_Server0.serviceTime exponential(1min)
config **.PC_Server1.serviceTime exponential(1min)

vector 0 AirportControl.PrioF_PQ queueLength:vector ETV
attr interpolationmode sample-hold
attr recordingmode vector
attr title "queue length"
vector 1 AirportControl.PrioT_PQ queueLength:vector ETV
attr interpolationmode sample-hold
attr recordingmode vector
attr title "queue length"
vector 2 AirportControl.NoPC_PQ queueLength:vector ETV
attr interpolationmode sample-hold
attr recordingmode vector
attr title "queue length"
vector 3 AirportControl.PC_PQ queueLength:vector ETV
attr interpolationmode sample-hold
attr recordingmode vector
attr title "queue length"
vector 4 AirportControl.sink lifeTime:vector ETV
attr interpolationmode none
attr recordingmode vector
attr title "lifetime of arrived jobs"
attr unit s
0	0	0	0
0	104	704	1
0	105	759	0
0	111	768	1
0	114	804	0
0	147	1024	1
0	150	1036	0
0	165	1152	1
0	167	1216	2
0	168	1242	1
0	174	1280	2
0	175	1282	1
0	181	1344	2
0	184	1382	1
0	191	1396	0
0	208	1472	1
0	213	1536	2
0	216	1570	1
0	221	1590	0
0	227	1600	1
0	228	1630	0
0	240	1664	1
0	245	1719	0
0	251	1728	1
0	252	1736	0
0	262	1792	1
0	266	1856	2
0	267	1866	1
0	275	1920	2
0	279	1984	3
0	280	1995	2
0	286	2048	3
0	289	2100	2
0	295	2112	3
0	297	2176	4
0	299	2240	5
0	301	2304	6
0	302	2330	5
0	308	2368	6
0	314	2432	7
0	316	2496	8
0	318	2560	9
0	319	2562	8
0	325	2624	9
0	329	2688	10
0	330	2704	9
0	335	2733	8
0	341	2752	9
0	342	2799	8
0	350	2816	9
0	352	2880	10
0	353	2891	9
0	361	2944	10
0	362	2985	9
0	371	3008	10
0	376	3026	9
0	381	3044	8
0	386	3051	7
0	393	3061	6
0	399	3072	7
0	408	3129	6
0	414	3136	7
0	422	3200	8
0	424	3264	9
0	425	3274	8
0	433	3328	9
0	434	3333	8
0	440	3392	9
0	441	3433	8
0	447	3456	9
0	448	3458	8
0	458	3520	9
0	459	3531	8
0	464	3539	7
0	472	3584	8
0	473	3600	7
0	478	3606	6
0	483	3633	5
0	489	3640	4
0	497	3648	5
0	499	3712	6
0	500	3720	5
0	508	3776	6
0	512	3816	5
0	516	3817	4
0	520	3831	3
0	525	3840	4
0	529	3855	3
0	534	3904	4
0	545	3968	5
0	548	4000	4
0	556	4032	5
0	558	4096	6
0	564	4160	7
0	565	4183	6
0	570	4206	5
0	576	4224	6
0	577	4228	5
0	585	4288	6
0	586	4308	5
0	593	4331	4
0	600	4346	3
0	605	4350	2
0	610	4352	3
0	617	4416	4
0	618	4429	3
0	627	4461	2
0	633	4480	3
0	634	4485	2
0	644	4508	1
0	652	4544	2
0	656	4608	3
0	662	4672	4
0	663	4719	3
0	673	4736	4
0	676	4800	3
0	680	4800	4
0	683	4814	3
0	688	4821	2
0	693	4837	1
0	701	4864	2
0	706	4886	1
0	711	4888	0
0	756	5248	1
0	760	5304	0
0	765	5312	1
0	770	5376	2
0	774	5418	1
0	778	5439	0
0	783	5440	1
0	784	5449	0
0	819	5696	1
0	824	5760	2
0	829	5824	3
0	835	5888	4
0	837	5952	5
0	838	5957	4
0	849	6000	5
0	853	6016	6
0	854	6018	5
0	862	6080	6
0	864	6144	7
0	871	6208	8
0	874	6233	7
0	879	6271	6
0	885	6272	7
0	888	6333	6
0	894	6336	7
0	895	6367	6
0	905	6400	7
0	913	6464	8
0	921	6528	9
0	922	6569	8
0	928	6592	9
0	932	6656	10
0	933	6698	9
0	939	6720	10
0	941	6784	11
0	943	6848	12
0	944	6895	11
0	949	6912	10
0	953	6912	11
0	958	6957	10
0	964	6976	11
0	968	7040	12
0	972	7104	13
0	973	7159	12
0	979	7168	13
0	980	7187	12
0	985	7192	11
0	993	7232	12
0	1001	7296	13
0	1003	7360	14
0	1004	7388	13
0	1010	7424	14
0	1013	7483	13
0	1019	7488	14
0	1024	7552	15
0	1030	7616	16
0	1034	7680	17
0	1035	7682	16
0	1041	7744	17
0	1042	7756	16
0	1048	7808	17
0	1049	7815	16
0	1058	7838	15
0	1063	7853	14
0	1073	7872	15
0	1077	7936	16
0	1078	7969	15
0	1083	7981	14
0	1091	8000	15
0	1092	8015	14
0	1097	8030	13
0	1105	8064	14
0	1110	8100	13
0	1116	8128	14
0	1117	8141	13
0	1124	8160	12
0	1130	8192	13
0	1132	8256	14
0	1134	8320	15
0	1135	8356	14
0	1142	8384	15
0	1145	8448	16
0	1146	8452	15
0	1151	8457	14
0	1158	8494	13
0	1162	8507	12
0	1167	8512	13
0	1177	8576	14
0	1179	8640	15
0	1180	8666	14
0	1185	8684	13
0	1195	8704	14
0	1196	8710	13
0	1201	8745	12
0	1209	8768	13
0	1210	8769	12
0	1215	8832	13
0	1217	8896	14
0	1219	8960	15
0	1220	8978	14
0	1228	9024	15
0	1240	9088	16
0	1246	9152	17
0	1248	9216	18
0	1250	9280	19
0	1251	9314	18
0	1259	9344	19
0	1260	9397	18
0	1266	9408	19
0	1272	9472	20
0	1274	9536	21
0	1276	9600	22
0	1280	9664	23
0	1281	9667	22
0	1286	9673	21
0	1291	9693	20
0	1297	9728	21
0	1300	9792	20
0	1304	9792	21
0	1308	9856	22
0	1313	9895	21
0	1319	9920	22
0	1323	9984	23
0	1325	10048	24
0	1326	10075	23
0	1336	10112	24
0	1337	10127	23
0	1343	10176	24
0	1349	10240	25
0	1350	10292	24
0	1355	10300	23
0	1361	10304	24
0	1363	10368	25
0	1365	10432	26
0	1368	10483	25
0	1374	10496	26
0	1381	10560	27
0	1382	10616	26
0	1388	10624	27
0	1392	10688	28
0	1393	10690	27
0	1403	10752	28
0	1408	10772	27
0	1416	10816	28
0	1419	10844	27
0	1425	10880	28
0	1426	10888	27
0	1431	10922	26
0	1436	10935	25
0	1441	10938	24
0	1446	10944	25
0	1448	11008	26
0	1453	11072	27
0	1455	11136	28
0	1465	11200	29
0	1467	11264	30
0	1469	11328	31
0	1471	11392	32
0	1472	11416	31
0	1478	11456	32
0	1479	11473	31
0	1487	11520	32
0	1488	11542	31
0	1493	11554	30
0	1498	11558	29
0	1506	11584	30
0	1509	11625	29
0	1515	11648	30
0	1519	11712	31
0	1521	11776	32
0	1523	11840	33
0	1527	11904	34
0	1529	11968	35
0	1530	11985	34
0	1539	12000	35
0	1542	12007	34
0	1548	12032	35
0	1554	12082	34
0	1558	12089	33
0	1562	12090	32
0	1567	12096	33
0	1568	12118	32
0	1573	12160	33
0	1574	12183	32
0	1578	12191	31
0	1586	12224	32
0	1592	12288	33
0	1593	12318	32
0	1601	12352	33
0	1608	12416	34
0	1613	12480	35
0	1626	12544	36
0	1629	12566	35
0	1637	12608	36
0	1641	12672	37
0	1642	12699	36
0	1647	12726	35
0	1652	12729	34
0	1658	12736	35
0	1661	12799	34
0	1667	12800	35
0	1671	12864	36
0	1672	12881	35
0	1682	12928	36
0	1683	12959	35
0	1688	12960	34
0	1696	12992	35
0	1700	13056	36
0	1704	13120	37
0	1706	13184	38
0	1707	13246	37
0	1713	13248	38
0	1714	13270	37
0	1722	13312	38
0	1723	13372	37
0	1729	13376	38
0	1730	13377	37
0	1738	13440	38
0	1747	13504	39
0	1755	13568	40
0	1757	13632	41
0	1759	13696	42
0	1760	13734	41
0	1765	13751	40
0	1771	13760	41
0	1775	13824	42
0	1781	13888	43
0	1782	13928	42
0	1788	13952	43
0	1789	13967	42
0	1795	14016	43
0	1796	14037	42
0	1804	14080	43
0	1805	14088	42
0	1811	14144	43
0	1814	14158	42
0	1819	14160	41
0	1824	14185	40
0	1832	14208	39
0	1833	14208	40
0	1845	14272	41
0	1847	14336	42
0	1848	14368	41
0	1853	14387	40
0	1859	14400	41
0	1860	14404	40
0	1868	14464	41
0	1874	14528	42
0	1875	14581	41
0	1881	14592	42
0	1882	14602	41
0	1887	14626	40
0	1899	14656	41
0	1902	14690	40
0	1907	14714	39
0	1915	14720	40
0	1917	14775	39
0	1924	14784	40
0	1926	14848	41
0	1927	14858	40
0	1935	14912	41
0	1936	14947	40
0	1942	14976	41
0	1948	15034	40
0	1954	15040	41
0	1955	15065	40
0	1961	15104	41
0	1964	15138	40
0	1970	15168	41
0	1977	15210	40
0	1982	15232	39
0	1986	15232	40
0	1991	15247	39
0	1997	15290	38
0	2002	15296	39
0	2003	15297	38
0	2007	15307	37
0	2011	15316	36
0	2015	15330	35
0	2020	15360	36
0	2021	15373	35
0	2035	15400	34
0	2044	15409	33
0	2049	15424	34
0	2057	15488	35
0	2061	15506	34
0	2069	15552	35
0	2070	15569	34
0	2074	15602	33
0	2082	15616	34
0	2087	15680	35
0	2093	15713	34
0	2099	15744	35
0	2103	15808	36
0	2106	15861	35
0	2111	15862	34
0	2117	15872	35
0	2118	15875	34
0	2130	15936	35
0	2134	16000	36
0	2135	16015	35
0	2140	16036	34
0	2146	16064	35
0	2147	16079	34
0	2155	16128	35
0	2156	16157	34
0	2162	16192	35
0	2163	16254	34
0	2168	16256	35
0	2174	16288	34
0	2182	16320	35
0	2183	16346	34
0	2191	16384	35
0	2196	16446	34
0	2202	16448	35
0	2209	16512	36
0	2216	16543	35
0	2222	16576	36
0	2226	16640	37
0	2227	16663	36
0	2235	16704	37
0	2237	16768	38
0	2241	16832	39
0	2242	16850	38
0	2250	16896	39
0	2251	16906	38
0	2256	16914	37
0	2261	16919	36
0	2266	16920	35
0	2274	16960	36
0	2277	17005	35
0	2283	17024	36
0	2288	17076	35
0	2294	17088	36
0	2297	17095	35
0	2302	17134	34
0	2308	17152	35
0	2309	17171	34
0	2316	17200	33
0	2322	17216	34
0	2324	17280	35
0	2330	17344	36
0	2333	17372	35
0	2338	17397	34
0	2344	17408	35
0	2348	17472	36
0	2350	17536	37
0	2354	17600	38
0	2356	17664	39
0	2357	17697	38
0	2365	17728	39
0	2366	17771	38
0	2372	17792	39
0	2376	17856	40
0	2377	17885	39
0	2383	17920	40
0	2384	17942	39
0	2390	17984	40
0	2395	18000	41
0	2406	18048	42
0	2408	18112	43
0	2410	18176	44
0	2413	18235	43
0	2419	18240	44
0	2421	18304	45
0	2422	18355	44
0	2432	18368	45
0	2435	18389	44
0	2441	18432	45
0	2448	18464	44
0	2453	18471	43
0	2459	18496	44
0	2463	18560	45
0	2465	18624	46
0	2470	18649	45
0	2475	18685	44
0	2483	18688	45
0	2486	18712	44
0	2493	18723	43
0	2501	18752	44
0	2503	18816	45
0	2507	18880	46
0	2508	18898	45
0	2513	18925	44
0	2519	18944	45
0	2520	18973	44
0	2528	19008	45
0	2529	19012	44
0	2537	19072	45
0	2539	19136	46
0	2540	19139	45
0	2545	19157	44
0	2551	19200	45
0	2557	19264	46
0	2558	19328	45
0	2562	19328	46
0	2568	19392	47
0	2570	19456	48
0	2571	19489	47
0	2579	19510	46
0	2585	19520	47
0	2586	19533	46
0	2590	19538	45
0	2598	19584	46
0	2609	19648	47
0	2612	19676	46
0	2617	19700	45
0	2622	19702	44
0	2629	19712	45
0	2638	19776	46
0	2640	19840	47
0	2641	19888	46
0	2647	19904	47
0	2649	19968	48
0	2652	20031	47
0	2658	20032	48
0	2660	20096	49
0	2661	20117	48
0	2673	20160	49
0	2674	20169	48
0	2680	20224	49
0	2682	20288	50
0	2684	20352	51
0	2685	20369	50
0	2693	20416	51
0	2695	20480	52
0	2697	20544	53
0	2698	20566	52
0	2703	20581	51
0	2709	20608	52
0	2710	20618	51
0	2715	20672	52
0	2720	20736	53
0	2721	20764	52
0	2729	20800	53
0	2730	20818	52
0	2737	20821	51
0	2741	20862	50
0	2746	20864	51
0	2750	20874	50
0	2758	20928	51
0	2765	20992	52
0	2769	21047	51
0	2774	21049	50
0	2782	21056	51
0	2783	21060	50
0	2788	21120	51
0	2793	21144	50
0	2797	21175	49
0	2802	21184	50
0	2806	21201	49
0	2815	21248	50
0	2822	21312	51
0	2825	21357	50
0	2835	21376	51
0	2838	21416	50
0	2843	21417	49
0	2849	21440	50
0	2852	21500	49
0	2858	21504	50
0	2862	21568	51
0	2866	21632	52
0	2867	21651	51
0	2874	21662	50
0	2879	21672	49
0	2887	21696	50
0	2889	21760	51
0	2893	21824	52
0	2894	21831	51
0	2899	21859	50
0	2907	21888	51
0	2908	21892	50
0	2917	21924	49
0	2925	21952	50
0	2926	21968	49
0	2931	21969	48
0	2937	22016	49
0	2938	22024	48
0	2942	22029	47
0	2946	22040	46
0	2954	22080	47
0	2955	22083	46
0	2959	22097	45
0	2963	22109	44
0	2968	22144	45
0	2978	22186	44
0	2983	22208	45
0	2984	22258	44
0	2992	22272	45
0	2996	22336	44
0	3000	22336	45
0	3006	22400	46
0	3008	22464	47
0	3019	22528	48
0	3023	22592	49
0	3026	22630	48
0	3032	22656	49
0	3044	22720	50
0	3045	22745	49
0	3051	22784	50
0	3053	22848	51
0	3054	22852	50
0	3061	22900	49
0	3071	22912	50
0	3072	22947	49
0	3079	22973	48
0	3085	22976	49
0	3089	23040	50
0	3093	23104	51
0	3095	23168	52
0	3096	23178	51
0	3101	23193	50
0	3107	23232	51
0	3108	23292	50
0	3114	23296	51
0	3117	23301	50
0	3122	23313	49
0	3130	23360	50
0	3136	23424	51
0	3140	23488	52
0	3142	23552	53
0	3143	23577	52
0	3149	23616	53
0	3153	23680	54
0	3154	23697	53
0	3159	23725	52
0	3165	23744	53
0	3169	23808	54
0	3170	23833	53
0	3178	23872	54
0	3180	23936	55
0	3181	23965	54
0	3193	24000	55
0	3195	24000	56
0	3198	24064	57
0	3199	24092	56
0	3204	24093	55
0	3214	24128	56
0	3221	24192	57
0	3224	24251	56
0	3232	24256	57
0	3233	24262	56
0	3243	24320	57
0	3245	24384	58
0	3246	24422	57
0	3252	24448	58
0	3254	24467	57
0	3260	24472	56
0	3264	24480	55
0	3268	24511	54
0	3273	24512	55
0	3274	24575	54
0	3279	24576	55
0	3280	24599	54
0	3284	24602	53
0	3288	24614	52
0	3293	24640	53
0	3294	24674	52
0	3298	24676	51
0	3303	24704	52
0	3304	24728	51
0	3308	24744	50
0	3313	24768	51
0	3327	24832	52
0	3328	24850	51
0	3333	24896	52
0	3334	24906	51
0	3341	24931	50
0	3346	24960	51
0	3350	24988	50
0	3355	25024	51
0	3356	25083	50
0	3361	25088	51
0	3365	25109	50
0	3373	25152	51
0	3374	25184	50
0	3379	25216	51
0	3380	25243	50
0	3385	25280	51
0	3387	25344	52
0	3395	25408	53
0	3396	25409	52
0	3400	25446	51
0	3405	25472	52
0	3409	25514	51
0	3414	25536	52
0	3429	25600	53
0	3430	25606	52
0	3437	25633	51
0	3446	25662	50
0	3451	25664	51
0	3452	25673	50
0	3460	25728	51
0	3461	25729	50
0	3468	25741	49
0	3472	25755	48
0	3477	25792	49
0	3482	25856	50
0	3487	25920	51
0	3488	25921	50
0	3493	25984	51
0	3494	26006	50
0	3504	26025	49
0	3508	26031	48
0	3516	26048	49
0	3521	26112	50
0	3532	26176	51
0	3533	26228	50
0	3538	26240	51
0	3555	26304	52
0	3556	26330	51
0	3564	26368	52
0	3566	26432	53
0	3567	26448	52
0	3575	26496	53
0	3576	26515	52
0	3580	26557	51
0	3585	26560	52
0	3586	26590	51
0	3594	26624	52
0	3599	26688	53
0	3600	26729	52
0	3605	26752	53
0	3606	26804	52
0	3611	26816	53
0	3612	26817	52
0	3629	26880	53
0	3633	26889	52
0	3637	26915	51
0	3642	26944	52
0	3643	26960	51
0	3654	27008	52
0	3655	27056	51
0	3663	27072	52
0	3664	27096	51
0	3679	27136	52
0	3694	27200	53
0	3697	27249	52
0	3703	27264	53
0	3709	27328	54
0	3711	27392	55
0	3715	27456	56
0	3716	27474	55
0	3724	27520	56
0	3725	27528	55
0	3730	27551	54
0	3740	27584	55
0	3742	27648	56
0	3744	27712	57
0	3746	27776	58
0	3747	27810	57
0	3753	27840	58
0	3754	27856	57
0	3762	27904	58
0	3763	27938	57
0	3768	27944	56
0	3774	27968	57
0	3775	27976	56
0	3781	28032	57
0	3782	28039	56
0	3786	28079	55
0	3794	28096	56
0	3796	28160	57
0	3802	28193	56
0	3808	28224	57
0	3812	28288	58
0	3816	28352	59
0	3817	28378	58
0	3825	28416	59
0	3828	28432	58
0	3836	28480	59
0	3837	28487	58
0	3848	28544	59
0	3851	28558	58
0	3857	28608	59
0	3865	28672	60
0	3868	28724	59
0	3874	28736	60
0	3876	28800	61
0	3877	28830	60
0	3882	28833	59
0	3887	28856	58
0	3893	28864	59
0	3894	28903	58
0	3898	28906	57
0	3909	28928	58
0	3910	28936	57
0	3917	28987	56
0	3922	28992	57
0	3923	28996	56
0	3927	29008	55
0	3935	29056	56
0	3936	29084	55
0	3944	29120	56
0	3949	29184	57
0	3950	29215	56
0	3954	29232	55
0	3958	29245	54
0	3966	29248	55
0	3967	29251	54
0	3975	29312	55
0	3976	29345	54
0	3981	29376	55
0	3985	29414	54
0	3990	29440	55
0	3994	29458	54
0	4005	29504	55
0	4006	29533	54
0	4011	29568	55
0	4012	29575	54
0	4019	29577	53
0	4024	29632	54
0	4025	29667	53
0	4030	29696	54
0	4031	29711	53
0	4038	29758	52
0	4043	29760	53
0	4047	29819	52
0	4052	29824	53
0	4053	29845	52
0	4064	29888	53
0	4066	29952	54
0	4071	30000	55
0	4078	30016	56
0	4082	30046	55
0	4089	30056	54
0	4100	30080	55
0	4104	30139	54
0	4109	30144	55
0	4111	30208	56
0	4123	30272	57
0	4127	30336	58
0	4128	30384	57
0	4134	30400	58
0	4135	30405	57
0	4141	30464	58
0	4145	30528	59
0	4151	30584	58
0	4157	30592	59
0	4159	30656	60
0	4165	30720	61
0	4166	30782	60
0	4172	30784	61
0	4175	30836	60
0	4181	30848	61
0	4187	30912	62
0	4192	30939	61
0	4197	30942	60
0	4202	30973	59
0	4208	30976	60
0	4211	30982	59
0	4220	31004	58
0	4226	31040	59
0	4227	31068	58
0	4235	31104	59
0	4239	31168	60
0	4240	31180	59
0	4249	31214	58
0	4254	31217	57
0	4264	31232	58
0	4267	31271	57
0	4275	31296	58
0	4276	31328	57
0	4282	31360	58
0	4283	31403	57
0	4291	31424	58
0	4293	31488	59
0	4301	31524	58
0	4309	31552	59
0	4313	31616	60
0	4317	31680	61
0	4320	31695	60
0	4326	31744	61
0	4327	31788	60
0	4334	31806	59
0	4340	31808	60
0	4342	31872	61
0	4343	31892	60
0	4349	31936	61
0	4352	31990	60
0	4360	32000	61
0	4361	32035	60
0	4367	32064	61
0	4368	32107	60
0	4374	32128	61
0	4375	32159	60
0	4383	32192	61
0	4387	32256	62
0	4388	32287	61
0	4394	32320	62
0	4398	32384	63
0	4399	32409	62
0	4405	32448	63
0	4411	32512	64
0	4412	32526	63
0	4417	32537	62
0	4423	32576	63
0	4427	32640	64
0	4428	32654	63
0	4433	32661	62
0	4440	32695	61
0	4445	32704	62
0	4446	32708	61
0	4454	32768	62
0	4458	32800	61
0	4462	32808	60
0	4470	32832	61
0	4471	32840	60
0	4475	32875	59
0	4480	32896	60
0	4484	32917	59
0	4488	32933	58
0	4496	32960	59
0	4506	32998	58
0	4517	33024	59
0	4520	33085	58
0	4526	33088	59
0	4532	33152	60
0	4533	33164	59
0	4539	33216	60
0	4540	33218	59
0	4545	33264	58
0	4550	33280	59
0	4557	33344	60
0	4558	33350	59
0	4572	33408	60
0	4573	33444	59
0	4578	33467	58
0	4583	33472	59
0	4590	33536	60
0	4594	33600	61
0	4600	33664	62
0	4601	33683	61
0	4606	33708	60
0	4612	33728	61
0	4613	33777	60
0	4618	33781	59
0	4624	33792	60
0	4626	33811	59
0	4633	33856	60
0	4635	33920	61
0	4638	33938	60
0	4644	33984	61
0	4647	34009	60
0	4655	34048	61
0	4659	34112	62
0	4660	34135	61
0	4668	34176	62
0	4669	34177	61
0	4679	34240	62
0	4680	34255	61
0	4686	34304	62
0	4688	34368	63
0	4690	34432	64
0	4692	34496	65
0	4706	34524	64
0	4711	34542	63
0	4716	34547	62
0	4722	34560	63
0	4723	34592	62
0	4731	34624	63
0	4737	34688	64
0	4741	34752	65
0	4743	34816	66
0	4744	34871	65
0	4750	34880	66
0	4751	34887	65
0	4756	34922	64
0	4762	34944	65
0	4766	35008	66
0	4768	35072	67
0	4769	35112	66
0	4777	35136	67
0	4780	35157	66
0	4785	35170	65
0	4790	35191	64
0	4796	35200	65
0	4799	35241	64
0	4804	35243	63
0	4809	35264	64
0	4810	35279	63
0	4814	35283	62
0	4818	35288	61
0	4826	35328	62
0	4827	35346	61
0	4841	35392	62
0	4843	35456	63
0	4850	35520	64
0	4854	35584	65
0	4858	35648	66
0	4859	35669	65
0	4864	35700	64
0	4872	35712	65
0	4873	35748	64
0	4879	35776	65
0	4885	35840	66
0	4887	35904	67
0	4891	35968	68
0	4892	35990	67
0	4897	35997	66
0	4906	36000	67
0	4910	36032	68
0	4916	36096	69
0	4917	36120	68
0	4922	36143	67
0	4928	36160	68
0	4929	36200	67
0	4937	36224	68
0	4942	36275	67
0	4948	36288	68
0	4955	36352	69
0	4956	36358	68
0	4964	36416	69
0	4965	36449	68
0	4970	36458	67
0	4976	36480	68
0	4977	36485	67
0	4986	36544	68
0	4990	36608	69
0	4991	36642	68
0	4996	36672	69
0	4997	36696	68
0	5005	36736	69
0	5012	36796	68
0	5018	36800	69
0	5024	36864	70
0	5028	36928	71
0	5029	36975	70
0	5035	36992	71
0	5039	37056	72
0	5041	37120	73
0	5042	37148	72
0	5049	37181	71
0	5055	37184	72
0	5056	37239	71
0	5064	37248	72
0	5069	37285	71
0	5075	37312	72
0	5076	37346	71
0	5082	37376	72
0	5083	37382	71
0	5090	37421	70
0	5100	37440	71
0	5101	37462	70
0	5106	37488	69
0	5115	37504	70
0	5119	37568	71
0	5122	37630	70
0	5130	37632	71
0	5132	37696	72
0	5136	37760	73
0	5143	37819	72
0	5149	37824	73
0	5153	37888	74
0	5155	37952	75
0	5156	37996	74
0	5164	38016	75
0	5168	38080	76
0	5169	38082	75
0	5175	38144	76
0	5177	38208	77
0	5178	38248	76
0	5184	38272	77
0	5188	38336	78
0	5190	38400	79
0	5191	38438	78
0	5199	38464	79
0	5201	38528	80
0	5202	38547	79
0	5209	38574	78
0	5215	38592	79
0	5220	38624	78
0	5225	38641	77
0	5232	38653	76
0	5238	38656	77
0	5242	38720	78
0	5246	38784	79
0	5248	38848	80
0	5249	38889	79
0	5255	38912	80
0	5256	38915	79
0	5264	38976	80
0	5265	38991	79
0	5273	39006	78
0	5279	39040	79
0	5284	39087	78
0	5292	39104	79
0	5296	39168	80
0	5297	39190	79
0	5307	39232	80
0	5308	39236	79
0	5315	39278	78
0	5321	39296	79
0	5322	39302	78
0	5330	39360	79
0	5332	39424	80
0	5334	39488	81
0	5336	39552	82
0	5341	39615	81
0	5347	39616	82
0	5349	39680	83
0	5350	39723	82
0	5356	39744	83
0	5357	39757	82
0	5362	39777	81
0	5370	39808	82
0	5378	39872	83
0	5379	39890	82
0	5384	39931	81
0	5389	39934	80
0	5393	39934	79
0	5399	39936	80
0	5401	40000	81
0	5402	40024	80
0	5407	40064	81
0	5419	40128	82
0	5420	40186	81
0	5426	40192	82
0	5427	40245	81
0	5428	40245	80
0	5436	40252	79
0	5441	40256	80
0	5446	40320	81
0	5447	40329	80
0	5454	40351	79
0	5462	40384	80
0	5469	40448	81
0	5470	40474	80
0	5480	40503	79
0	5488	40512	80
0	5496	40576	81
0	5497	40608	80
0	5505	40640	81
0	5508	40675	80
0	5513	40680	79
0	5518	40686	78
0	5523	40704	79
0	5530	40768	80
0	5532	40832	81
0	5536	40896	82
0	5538	40960	83
0	5539	40968	82
0	5548	41011	81
0	5554	41024	82
0	5555	41025	81
0	5562	41045	80
0	5568	41088	81
0	5569	41112	80
0	5574	41118	79
0	5578	41126	78
0	5583	41152	79
0	5587	41179	78
0	5591	41205	77
0	5596	41210	76
0	5601	41216	77
0	5608	41280	78
0	5613	41344	79
0	5618	41408	80
0	5619	41461	79
0	5624	41472	80
0	5633	41536	81
0	5634	41589	80
0	5640	41600	81
0	5642	41664	82
0	5643	41675	81
0	5651	41728	82
0	5653	41792	83
0	5659	41856	84
0	5660	41874	83
0	5665	41875	82
0	5673	41920	83
0	5674	41936	82
0	5682	41984	83
0	5687	42000	84
0	5690	42026	83
0	5696	42048	84
0	5697	42096	83
0	5703	42112	84
0	5709	42176	85
0	5713	42240	86
0	5714	42267	85
0	5721	42288	84
0	5727	42304	85
0	5733	42364	84
0	5739	42368	85
0	5743	42432	86
0	5744	42433	85
0	5749	42442	84
0	5753	42457	83
0	5761	42496	84
0	5772	42560	85
0	5773	42575	84
0	5784	42624	85
0	5786	42653	84
0	5791	42655	83
0	5799	42688	84
0	5800	42689	83
0	5810	42752	84
0	5814	42816	85
0	5815	42821	84
0	5820	42852	83
0	5826	42880	84
0	5828	42944	85
0	5831	43001	84
0	5837	43008	85
0	5840	43033	84
0	5848	43072	85
0	5849	43107	84
0	5854	43133	83
0	5860	43136	84
0	5861	43147	83
0	5868	43180	82
0	5872	43195	81
0	5877	43200	82
0	5887	43264	83
0	5890	43283	82
0	5895	43312	81
0	5901	43328	82
0	5904	43366	81
0	5910	43392	82
0	5916	43456	83
0	5920	43512	82
0	5926	43520	83
0	5932	43584	84
0	5936	43648	85
0	5937	43701	84
0	5943	43712	85
0	5946	43730	84
0	5956	43776	85
0	5957	43778	84
0	5966	43808	83
0	5971	43818	82
0	5979	43840	83
0	5980	43884	82
0	5987	43904	83
0	5992	43968	84
0	5993	43970	83
0	6000	43983	82
0	6001	43983	81
0	6013	44032	82
0	6014	44048	81
0	6020	44096	82
0	6024	44160	83
0	6025	44164	82
0	6035	44224	83
0	6036	44248	82
0	6042	44288	83
0	6043	44337	82
0	6049	44352	83
0	6050	44356	82
0	6055	44368	81
0	6063	44416	82
0	6065	44480	83
0	6071	44544	84
0	6072	44551	83
0	6077	44555	82
0	6083	44608	83
0	6090	44655	82
0	6096	44672	83
0	6097	44716	82
0	6103	44736	83
0	6108	44786	82
0	6114	44800	83
0	6116	44864	84
0	6117	44873	83
0	6122	44926	82
0	6127	44927	81
0	6132	44928	82
0	6139	44992	83
0	6144	45056	84
0	6146	45120	85
0	6156	45184	86
0	6161	45241	85
0	6167	45248	86
0	6168	45292	85
0	6176	45312	86
0	6177	45342	85
0	6185	45376	86
0	6187	45440	87
0	6189	45504	88
0	6191	45568	89
0	6192	45600	88
0	6200	45632	89
0	6202	45696	90
0	6204	45760	91
0	6205	45772	90
0	6210	45796	89
0	6216	45824	90
0	6217	45837	89
0	6227	45888	90
0	6229	45952	91
0	6230	45964	90
0	6238	46016	91
0	6239	46037	90
0	6245	46080	91
0	6253	46144	92
0	6254	46147	91
0	6259	46172	90
0	6267	46208	91
0	6268	46272	90
0	6272	46272	91
0	6275	46285	90
0	6281	46336	91
0	6283	46400	92
0	6289	46464	93
0	6290	46465	92
0	6298	46521	91
0	6305	46528	92
0	6307	46538	91
0	6312	46582	90
0	6318	46592	91
0	6320	46606	90
0	6334	46637	89
0	6341	46652	88
0	6347	46656	89
0	6351	46720	90
0	6354	46770	89
0	6360	46784	90
0	6362	46848	91
0	6363	46860	90
0	6373	46912	91
0	6377	46976	92
0	6380	47031	91
0	6386	47040	92
0	6387	47047	91
0	6393	47104	92
0	6396	47167	91
0	6402	47168	92
0	6404	47232	93
0	6406	47296	94
0	6407	47313	93
0	6413	47360	94
0	6414	47416	93
0	6420	47424	94
0	6424	47488	95
0	6425	47491	94
0	6436	47521	93
0	6441	47536	92
0	6447	47552	93
0	6448	47556	92
0	6453	47584	91
0	6461	47616	92
0	6462	47639	91
0	6467	47680	92
0	6468	47695	91
0	6478	47738	90
0	6486	47744	91
0	6487	47753	90
0	6491	47788	89
0	6496	47808	90
0	6501	47872	91
0	6505	47905	90
0	6509	47908	89
0	6520	47936	90
0	6528	48000	91
0	6530	48000	92
0	6534	48018	91
0	6542	48064	92
0	6543	48072	91
0	6554	48112	90
0	6562	48128	91
0	6563	48171	90
0	6568	48183	89
0	6574	48192	90
0	6576	48256	91
0	6582	48314	90
0	6591	48318	89
0	6597	48320	90
0	6598	48366	89
0	6604	48384	90
0	6605	48405	89
0	6609	48429	88
0	6618	48448	89
0	6622	48477	88
0	6629	48512	89
0	6637	48576	90
0	6638	48597	89
0	6646	48640	90
0	6647	48662	89
0	6652	48704	90
0	6653	48713	89
0	6666	48768	90
0	6667	48798	89
0	6672	48804	88
0	6676	48831	87
0	6681	48832	88
0	6690	48878	87
0	6696	48896	88
0	6700	48960	89
0	6704	49024	90
0	6705	49050	89
0	6712	49088	88
0	6716	49088	89
0	6722	49152	90
0	6726	49216	91
0	6728	49280	92
0	6729	49320	91
0	6735	49344	92
0	6738	49395	91
0	6743	49402	90
0	6749	49408	91
0	6750	49412	90
0	6761	49460	89
0	6767	49472	90
0	6771	49515	89
0	6777	49536	90
0	6779	49600	91
0	6780	49606	90
0	6785	49660	89
0	6790	49664	90
0	6798	49728	91
0	6803	49792	92
0	6804	49842	91
0	6808	49851	90
0	6812	49854	89
0	6817	49856	90
0	6822	49920	91
0	6823	49922	90
0	6831	49984	91
0	6841	50048	92
0	6844	50094	91
0	6849	50103	90
0	6855	50112	91
0	6859	50176	92
0	6864	50220	91
0	6871	50230	90
0	6879	50240	91
0	6883	50304	92
0	6884	50321	91
0	6890	50368	92
0	6891	50432	91
0	6895	50432	92
0	6901	50496	93
0	6902	50541	92
0	6908	50560	93
0	6912	50624	94
0	6914	50688	95
0	6915	50693	94
0	6920	50731	93
0	6928	50752	94
0	6929	50779	93
0	6937	50816	94
0	6940	50852	93
0	6946	50880	94
0	6952	50944	95
0	6953	50959	94
0	6962	51008	95
0	6963	51012	94
0	6968	51050	93
0	6973	51055	92
0	6981	51072	93
0	6982	51120	92
0	6987	51130	91
0	6992	51136	92
0	6993	51138	91
0	7001	51200	92
0	7006	51258	91
0	7011	51264	92
0	7021	51328	93
0	7025	51392	94
0	7027	51456	95
0	7030	51478	94
0	7035	51504	93
0	7041	51520	94
0	7043	51584	95
0	7045	51648	96
0	7047	51712	97
0	7052	51747	96
0	7058	51776	97
0	7060	51840	98
0	7061	51844	97
0	7069	51904	98
0	7073	51968	99
0	7074	52031	98
0	7080	52032	99
0	7081	52038	98
0	7088	52072	97
0	7096	52096	98
0	7097	52136	97
0	7103	52160	98
0	7111	52224	99
0	7112	52250	98
0	7118	52288	99
0	7121	52318	98
0	7126	52330	97
0	7132	52352	98
0	7136	52416	99
0	7137	52437	98
0	7143	52480	99
0	7149	52542	98
0	7155	52544	99
0	7159	52608	100
0	7160	52618	99
0	7168	52672	100
0	7175	52703	99
0	7183	52736	100
0	7185	52800	101
0	7188	52833	100
0	7194	52864	101
0	7200	52928	102
0	7201	52939	101
0	7207	52992	102
0	7208	52993	101
0	7213	53003	100
0	7218	53032	99
0	7223	53038	98
0	7228	53056	99
0	7229	53115	98
0	7234	53120	99
0	7235	53176	98
0	7240	53184	99
0	7241	53221	98
0	7249	53248	99
0	7254	53312	100
0	7262	53376	101
0	7266	53440	102
0	7272	53504	103
0	7273	53508	102
0	7278	53526	101
0	7285	53553	100
0	7291	53568	101
0	7292	53572	100
0	7299	53623	99
0	7305	53632	100
0	7308	53650	99
0	7315	53683	98
0	7320	53689	97
0	7325	53696	98
0	7329	53746	97
0	7334	53760	98
0	7340	53806	97
0	7348	53824	98
0	7351	53875	97
0	7357	53888	98
0	7361	53952	99
0	7362	53969	98
0	7367	53981	97
0	7376	54000	98
0	7380	54016	99
0	7381	54058	98
0	7393	54080	99
0	7394	54107	98
0	7399	54120	97
0	7409	54144	98
0	7413	54208	99
0	7415	54272	100
0	7417	54336	101
0	7418	54370	100
0	7426	54400	101
0	7428	54464	102
0	7429	54508	101
0	7435	54528	102
0	7436	54569	101
0	7442	54592	102
0	7443	54638	101
0	7453	54656	102
0	7454	54657	101
0	7459	54720	102
0	7469	54773	101
0	7475	54784	102
0	7481	54795	101
0	7485	54816	100
0	7489	54822	99
0	7497	54848	100
0	7502	54912	101
0	7503	54913	100
0	7510	54965	99
0	7515	54976	100
0	7525	55040	101
0	7526	55069	100
0	7536	55104	101
0	7537	55123	100
0	7543	55168	101
0	7544	55226	100
0	7550	55232	101
0	7551	55257	100
0	7559	55296	101
0	7563	55360	102
0	7565	55424	103
0	7567	55488	104
0	7571	55501	103
0	7579	55552	104
0	7583	55616	105
0	7586	55647	104
0	7598	55680	105
0	7599	55690	104
0	7607	55744	105
0	7608	55794	104
0	7616	55808	105
0	7618	55872	106
0	7619	55900	105
0	7624	55916	104
0	7630	55936	105
0	7636	56000	106
0	7639	56018	105
0	7645	56064	106
0	7646	56084	105
0	7652	56128	106
0	7653	56177	105
0	7659	56192	106
0	7661	56256	107
0	7665	56320	108
0	7666	56324	107
0	7675	56366	106
0	7681	56384	107
0	7684	56413	106
0	7692	56448	107
0	7693	56494	106
0	7699	56512	107
0	7702	56541	106
0	7708	56576	107
0	7711	56598	106
0	7717	56640	107
0	7719	56704	108
0	7723	56768	109
0	7729	56832	110
0	7730	56843	109
0	7736	56896	110
0	7738	56960	111
0	7739	56974	110
0	7750	57024	111
0	7751	57029	110
0	7757	57088	111
0	7763	57152	112
0	7769	57216	113
0	7771	57280	114
0	7775	57344	115
0	7777	57408	116
0	7778	57422	115
0	7785	57463	114
0	7791	57472	115
0	7792	57527	114
0	7798	57536	115
0	7799	57589	114
0	7805	57600	115
0	7811	57664	116
0	7815	57728	117
0	7817	57792	118
0	7818	57805	117
0	7824	57856	118
0	7826	57920	119
0	7827	57958	118
0	7833	57984	119
0	7834	58015	118
0	7841	58046	117
0	7849	58048	118
0	7850	58076	117
0	7859	58110	116
0	7865	58112	117
0	7869	58176	118
0	7871	58240	119
0	7872	58262	118
0	7878	58304	119
0	7880	58368	120
0	7884	58432	121
0	7887	58486	120
0	7893	58496	121
0	7897	58547	120
0	7905	58560	121
0	7913	58624	122
0	7916	58657	121
0	7924	58688	122
0	7925	58714	121
0	7932	58730	120
0	7937	58732	119
0	7943	58752	120
0	7945	58816	121
0	7946	58858	120
0	7952	58880	121
0	7953	58901	120
0	7960	58906	119
0	7965	58917	118
0	7969	58920	117
0	7974	58944	118
0	7986	59008	119
0	7988	59072	120
0	7992	59136	121
0	7993	59145	120
0	8001	59200	121
0	8003	59264	122
0	8004	59291	121
0	8010	59328	122
0	8014	59392	123
0	8018	59456	124
0	8020	59520	125
0	8022	59584	126
0	8024	59648	127
0	8025	59698	126
0	8031	59712	127
0	8035	59776	128
0	8037	59840	129
0	8038	59867	128
0	8043	59892	127
0	8048	59895	126
0	8054	59904	127
0	8056	59968	128
0	8061	60000	129
0	8066	60017	128
0	8072	60032	129
0	8078	60096	130
0	8079	60100	129
0	8085	60160	130