version 3
run General-7-20240513-00:16:56-20028
attr configname General
attr datetime 20240513-00:16:56
attr datetimef 20240513-001656
attr experiment General
attr inifile omnetpp.ini
attr iterationvars ""
attr iterationvarsd ""
attr iterationvarsf ""
attr measurement ""
attr network AirportControl
attr processid 20028
attr repetition 7
attr replication #7
attr resultdir results
attr runnumber 7
attr seedset 7
config network AirportControl
config repeat 10
config simtime-resolution s
config sim-time-limit 1440min
config **.PrioT_PCT.jobType 0
config **.PrioT_PCF.jobType 1
config **.PrioF_PCT.jobType 2
config **.PrioF_PCF.jobType 3
config **.PrioT_PCT.probArrival 0.04
config **.PrioT_PCF.probArrival 0.01
config **.PrioF_PCT.probArrival 0.01
config **.PrioF_PCF.probArrival 0.94
config **.PrioT_PCT.interarrivalRateRush 0.4min
config **.PrioT_PCF.interarrivalRateRush 0.4min
config **.PrioF_PCT.interarrivalRateRush 0.4min
config **.PrioF_PCF.interarrivalRateRush 0.4min
config **.PrioF_PCF.interarrivalRateNormal 1min
config **.PrioT_PCT.interarrivalRateNormal 1min
config **.PrioF_PCT.interarrivalRateNormal 1min
config **.PrioT_PCF.interarrivalRateNormal 1min
config **.PrioF_PCF.numberOfPeaks 4
config **.PrioF_PCT.numberOfPeaks 4
config **.PrioT_PCF.numberOfPeaks 4
config **.PrioT_PCT.numberOfPeaks 4
config **.PrioF_PCF.durationOfPeaks 150min
config **.PrioF_PCT.durationOfPeaks 150min
config **.PrioT_PCF.durationOfPeaks 150min
config **.PrioT_PCT.durationOfPeaks 150min
config **.PrioT_Server.serviceTime exponential(3min)
config **.PrioF_Server3.serviceTime exponential(5min)
config **.PrioF_Server2.serviceTime exponential(5min)
config **.PrioF_Server1.serviceTime exponential(5min)
config **.PrioF_Server0.serviceTime exponential(5min)
config **.NoPC_Server0.serviceTime exponential(3min)
config **.NoPC_Server3.serviceTime exponential(3min)
config **.NoPC_Server2.serviceTime exponential(3min)
config **.NoPC_Server1.serviceTime exponential(3min)
config **.PC_Server0.serviceTime exponential(1min)
config **.PC_Server1.serviceTime exponential(1min)

vector 0 AirportControl.PrioF_PQ queueLength:vector ETV
attr interpolationmode sample-hold
attr recordingmode vector
attr title "queue length"
vector 1 AirportControl.PrioT_PQ queueLength:vector ETV
attr interpolationmode sample-hold
attr recordingmode vector
attr title "queue length"
vector 2 AirportControl.NoPC_PQ queueLength:vector ETV
attr interpolationmode sample-hold
attr recordingmode vector
attr title "queue length"
vector 3 AirportControl.PC_PQ queueLength:vector ETV
attr interpolationmode sample-hold
attr recordingmode vector
attr title "queue length"
vector 4 AirportControl.sink lifeTime:vector ETV
attr interpolationmode none
attr recordingmode vector
attr title "lifetime of arrived jobs"
attr unit s
0	0	0	0
0	41	256	1
0	42	302	0
0	48	320	1
0	52	384	2
0	54	448	3
0	55	454	2
0	63	512	3
0	64	534	2
0	69	556	1
0	77	576	2
0	81	640	3
0	82	650	2
0	87	663	1
0	93	704	2
0	95	768	3
0	99	832	4
0	100	858	3
0	106	896	4
0	110	960	5
0	111	1004	4
0	117	1024	5
0	121	1088	6
0	124	1148	5
0	130	1152	6
0	131	1168	5
0	136	1212	4
0	142	1216	5
0	143	1270	4
0	148	1273	3
0	153	1280	4
0	154	1342	3
0	159	1344	4
0	160	1346	3
0	178	1408	4
0	181	1454	3
0	187	1472	4
0	194	1536	5
0	196	1600	6
0	200	1664	7
0	202	1728	8
0	203	1729	7
0	211	1792	8
0	213	1856	9
0	215	1920	10
0	216	1933	9
0	222	1984	10
0	223	1990	9
0	233	2048	10
0	237	2112	11
0	238	2138	10
0	243	2149	9
0	249	2176	10
0	250	2181	9
0	260	2240	10
0	265	2301	9
0	271	2304	10
0	275	2368	11
0	276	2371	10
0	286	2432	11
0	287	2459	10
0	293	2496	11
0	294	2528	10
0	299	2560	9
0	303	2560	10
0	308	2597	9
0	314	2624	10
0	315	2633	9
0	323	2688	10
0	328	2700	9
0	333	2730	8
0	339	2752	9
0	340	2770	8
0	345	2792	7
0	355	2816	8
0	359	2880	9
0	360	2883	8
0	368	2944	9
0	369	2980	8
0	378	3008	9
0	379	3047	8
0	385	3072	9
0	397	3136	10
0	398	3158	9
0	403	3161	8
0	408	3169	7
0	413	3200	8
0	417	3246	7
0	425	3264	8
0	426	3297	7
0	434	3328	8
0	437	3345	7
0	443	3392	8
0	444	3405	7
0	448	3406	6
0	456	3456	7
0	457	3513	6
0	465	3520	7
0	466	3550	6
0	474	3584	7
0	481	3648	8
0	483	3712	9
0	484	3723	8
0	492	3776	9
0	497	3810	8
0	503	3840	9
0	504	3843	8
0	508	3843	7
0	514	3872	6
0	522	3904	7
0	523	3945	6
0	531	3968	7
0	532	3971	6
0	536	4008	5
0	541	4032	6
0	549	4096	7
0	553	4160	8
0	556	4168	7
0	564	4224	8
0	565	4243	7
0	570	4259	6
0	578	4288	7
0	579	4328	6
0	585	4352	7
0	586	4370	6
0	590	4408	5
0	595	4416	6
0	599	4450	5
0	607	4480	6
0	608	4497	5
0	615	4513	4
0	620	4544	5
0	624	4597	4
0	629	4608	5
0	631	4672	6
0	632	4675	5
0	643	4736	6
0	648	4800	7
0	649	4836	6
0	660	4864	7
0	664	4922	6
0	669	4928	7
0	670	4947	6
0	674	4952	5
0	679	4992	6
0	686	5017	5
0	697	5056	6
0	698	5061	5
0	709	5120	6
0	715	5184	7
0	718	5228	6
0	726	5248	7
0	727	5270	6
0	733	5312	7
0	734	5324	6
0	739	5335	5
0	744	5353	4
0	749	5376	5
0	753	5433	4
0	758	5440	5
0	762	5485	4
0	767	5504	5
0	771	5513	4
0	779	5568	5
0	783	5632	6
0	785	5696	7
0	786	5698	6
0	791	5707	5
0	799	5760	6
0	802	5800	5
0	814	5824	6
0	816	5888	7
0	817	5910	6
0	823	5952	7
0	830	6000	8
0	834	6016	9
0	836	6080	10
0	837	6137	9
0	844	6144	10
0	846	6150	9
0	854	6208	10
0	855	6218	9
0	861	6272	10
0	864	6290	9
0	870	6336	10
0	871	6362	9
0	876	6364	8
0	881	6370	7
0	885	6394	6
0	890	6400	7
0	894	6420	6
0	898	6442	5
0	906	6464	6
0	911	6517	5
0	919	6528	6
0	924	6592	7
0	935	6650	6
0	940	6656	7
0	947	6720	8
0	950	6743	7
0	955	6749	6
0	963	6784	7
0	965	6848	8
0	969	6912	9
0	970	6923	8
0	975	6925	7
0	982	6927	6
0	990	6976	7
0	994	7040	8
0	999	7091	7
0	1005	7104	8
0	1006	7134	7
0	1011	7151	6
0	1019	7168	7
0	1023	7232	8
0	1024	7265	7
0	1029	7278	6
0	1035	7296	7
0	1036	7352	6
0	1044	7360	7
0	1045	7385	6
0	1053	7424	7
0	1054	7426	6
0	1064	7488	7
0	1068	7505	6
0	1075	7546	5
0	1081	7552	6
0	1089	7616	7
0	1091	7680	8
0	1092	7683	7
0	1106	7744	8
0	1107	7807	7
0	1113	7808	8
0	1118	7863	7
0	1124	7872	8
0	1125	7919	7
0	1131	7936	8
0	1133	8000	9
0	1134	8026	8
0	1139	8036	7
0	1147	8064	8
0	1153	8128	9
0	1157	8192	10
0	1158	8205	9
0	1164	8256	10
0	1165	8264	9
0	1170	8320	8
0	1174	8320	9
0	1184	8384	10
0	1185	8416	9
0	1191	8448	10
0	1192	8472	9
0	1197	8502	8
0	1203	8512	9
0	1207	8576	10
0	1209	8640	11
0	1212	8683	10
0	1218	8704	11
0	1219	8749	10
0	1225	8768	11
0	1227	8832	12
0	1231	8896	13
0	1232	8924	12
0	1238	8960	13
0	1243	9024	14
0	1245	9088	15
0	1246	9100	14
0	1254	9152	15
0	1258	9216	16
0	1260	9222	15
0	1266	9276	14
0	1272	9280	15
0	1273	9305	14
0	1283	9344	15
0	1286	9364	14
0	1290	9372	13
0	1295	9408	14
0	1296	9418	13
0	1303	9425	12
0	1307	9429	11
0	1315	9472	12
0	1319	9524	11
0	1327	9536	12
0	1328	9538	11
0	1332	9540	10
0	1339	9576	9
0	1344	9600	10
0	1355	9664	11
0	1360	9728	12
0	1361	9738	11
0	1365	9745	10
0	1373	9792	11
0	1379	9845	10
0	1385	9856	11
0	1393	9920	12
0	1394	9964	11
0	1400	9984	12
0	1402	10048	13
0	1404	10112	14
0	1407	10131	13
0	1412	10172	12
0	1417	10173	11
0	1422	10174	10
0	1432	10176	11
0	1435	10203	10
0	1443	10240	11
0	1444	10293	10
0	1450	10304	11
0	1452	10368	12
0	1453	10376	11
0	1458	10379	10
0	1466	10432	11
0	1469	10441	10
0	1479	10496	11
0	1484	10560	12
0	1492	10624	13
0	1494	10688	14
0	1496	10752	15
0	1498	10816	16
0	1502	10880	17
0	1503	10912	16
0	1509	10944	17
0	1513	11008	18
0	1514	11021	17
0	1520	11072	18
0	1524	11136	19
0	1528	11200	20
0	1529	11225	19
0	1537	11264	20
0	1539	11328	21
0	1540	11355	20
0	1546	11392	21
0	1548	11456	22
0	1549	11507	21
0	1554	11514	20
0	1560	11520	21
0	1562	11584	22
0	1565	11609	21
0	1570	11624	20
0	1576	11648	21
0	1577	11663	20
0	1581	11673	19
0	1585	11706	18
0	1590	11712	19
0	1591	11715	18
0	1602	11776	19
0	1603	11787	18
0	1610	11809	17
0	1618	11840	18
0	1626	11904	19
0	1629	11943	18
0	1637	11968	19
0	1638	11973	18
0	1647	12000	19
0	1650	12003	18
0	1657	12028	17
0	1662	12032	18
0	1673	12096	19
0	1680	12160	20
0	1683	12194	19
0	1689	12224	20
0	1692	12242	19
0	1700	12288	20
0	1701	12318	19
0	1713	12352	20
0	1714	12388	19
0	1722	12416	20
0	1723	12450	19
0	1728	12457	18
0	1733	12468	17
0	1739	12480	18
0	1742	12502	17
0	1752	12544	18
0	1756	12608	19
0	1757	12640	18
0	1763	12672	19
0	1764	12683	18
0	1769	12719	17
0	1777	12736	18
0	1781	12800	19
0	1782	12816	18
0	1787	12863	17
0	1792	12864	18
0	1794	12928	19
0	1800	12985	18
0	1808	12992	19
0	1809	13025	18
0	1815	13056	19
0	1821	13120	20
0	1824	13130	19
0	1830	13184	20
0	1831	13203	19
0	1839	13248	20
0	1843	13312	21
0	1844	13340	20
0	1851	13359	19
0	1857	13376	20
0	1858	13402	19
0	1868	13440	20
0	1875	13504	21
0	1877	13568	22
0	1878	13621	21
0	1883	13631	20
0	1889	13632	21
0	1897	13696	22
0	1899	13760	23
0	1900	13769	22
0	1907	13810	21
0	1915	13824	22
0	1921	13888	23
0	1923	13952	24
0	1925	14016	25
0	1926	14027	24
0	1933	14075	23
0	1939	14080	24
0	1942	14131	23
0	1947	14142	22
0	1953	14144	23
0	1959	14208	24
0	1961	14272	25
0	1962	14279	24
0	1967	14308	23
0	1972	14320	22
0	1978	14336	23
0	1984	14400	24
0	1988	14464	25
0	1990	14528	26
0	1991	14549	25
0	1997	14592	26
0	1999	14656	27
0	2001	14720	28
0	2005	14784	29
0	2007	14848	30
0	2009	14912	31
0	2011	14976	32
0	2016	15040	33
0	2017	15061	32
0	2022	15064	31
0	2030	15104	32
0	2031	15125	31
0	2036	15154	30
0	2041	15164	29
0	2047	15168	30
0	2052	15183	29
0	2061	15206	28
0	2066	15212	27
0	2071	15232	28
0	2078	15296	29
0	2086	15360	30
0	2087	15398	29
0	2095	15424	30
0	2097	15488	31
0	2101	15552	32
0	2102	15575	31
0	2107	15608	30
0	2113	15616	31
0	2114	15624	30
0	2121	15663	29
0	2127	15680	30
0	2129	15744	31
0	2131	15808	32
0	2137	15872	33
0	2138	15884	32
0	2144	15936	33
0	2145	15954	32
0	2150	15961	31
0	2155	15967	30
0	2160	16000	31
0	2162	16008	30
0	2169	16064	31
0	2178	16128	32
0	2179	16133	31
0	2187	16192	32
0	2192	16235	31
0	2200	16256	32
0	2201	16269	31
0	2207	16320	32
0	2209	16384	33
0	2210	16416	32
0	2218	16448	33
0	2219	16451	32
0	2224	16494	31
0	2232	16506	30
0	2238	16512	31
0	2241	16545	30
0	2248	16566	29
0	2253	16574	28
0	2258	16576	29
0	2260	16640	30
0	2261	16658	29
0	2265	16673	28
0	2273	16704	29
0	2277	16768	28
0	2281	16768	29
0	2283	16770	28
0	2291	16832	29
0	2292	16838	28
0	2296	16867	27
0	2301	16896	28
0	2307	16941	27
0	2322	16960	28
0	2323	17003	27
0	2327	17014	26
0	2332	17024	27
0	2337	17088	28
0	2347	17122	27
0	2355	17152	28
0	2359	17216	29
0	2363	17280	30
0	2366	17319	29
0	2372	17344	30
0	2375	17369	29
0	2381	17408	30
0	2382	17411	29
0	2390	17472	30
0	2393	17534	29
0	2399	17536	30
0	2400	17544	29
0	2405	17581	28
0	2412	17597	27
0	2418	17600	28
0	2421	17643	27
0	2427	17664	28
0	2433	17728	29
0	2436	17782	28
0	2442	17792	29
0	2444	17856	30
0	2445	17917	29
0	2451	17920	30
0	2455	17984	31
0	2456	17993	30
0	2457	17993	29
0	2470	18000	30
0	2474	18048	31
0	2477	18112	30
0	2481	18112	31
0	2485	18176	32
0	2504	18240	33
0	2507	18282	32
0	2512	18287	31
0	2518	18304	32
0	2519	18366	31
0	2525	18368	32
0	2531	18432	33
0	2535	18496	34
0	2536	18522	33
0	2541	18545	32
0	2547	18560	33
0	2548	18574	32
0	2558	18624	33
0	2559	18651	32
0	2567	18688	33
0	2568	18705	32
0	2574	18752	33
0	2577	18798	32
0	2583	18816	33
0	2584	18841	32
0	2590	18880	33
0	2594	18944	34
0	2596	19008	35
0	2600	19072	36
0	2604	19136	37
0	2605	19156	36
0	2611	19200	37
0	2614	19264	36
0	2618	19264	37
0	2621	19277	36
0	2628	19324	35
0	2634	19328	36
0	2635	19383	35
0	2641	19392	36
0	2645	19456	37
0	2646	19457	36
0	2663	19520	37
0	2669	19584	38
0	2671	19648	39
0	2672	19680	38
0	2678	19712	39
0	2679	19714	38
0	2686	19762	37
0	2692	19776	38
0	2693	19777	37
0	2698	19793	36
0	2702	19807	35
0	2706	19815	34
0	2710	19817	33
0	2714	19838	32
0	2719	19840	33
0	2723	19867	32
0	2727	19873	31
0	2732	19904	32
0	2734	19968	33
0	2745	20032	34
0	2752	20079	33
0	2756	20080	32
0	2761	20096	33
0	2766	20160	34
0	2771	20224	35
0	2773	20288	36
0	2780	20352	37
0	2782	20416	38
0	2784	20480	39
0	2788	20544	40
0	2794	20608	41
0	2796	20672	42
0	2797	20704	41
0	2802	20706	40
0	2810	20736	41
0	2813	20798	40
0	2819	20800	41
0	2822	20813	40
0	2827	20860	39
0	2833	20864	40
0	2834	20915	39
0	2840	20928	40
0	2841	20961	39
0	2847	20992	40
0	2854	21056	41
0	2855	21092	40
0	2863	21120	41
0	2875	21184	42
0	2877	21248	43
0	2878	21263	42
0	2886	21312	43
0	2888	21376	44
0	2890	21440	45
0	2891	21481	44
0	2899	21504	45
0	2903	21568	46
0	2904	21582	45
0	2910	21632	46
0	2912	21696	47
0	2914	21760	48
0	2917	21803	47
0	2923	21824	48
0	2925	21888	49
0	2927	21952	50
0	2929	22016	51
0	2931	22080	52
0	2932	22091	51
0	2939	22122	50
0	2945	22144	51
0	2946	22182	50
0	2951	22198	49
0	2959	22208	50
0	2960	22228	49
0	2972	22272	50
0	2976	22336	51
0	2977	22382	50
0	2983	22400	51
0	2984	22409	50
0	2989	22463	49
0	2997	22464	50
0	3006	22528	51
0	3008	22592	52
0	3009	22604	51
0	3017	22656	52
0	3019	22720	53
0	3020	22737	52
0	3025	22756	51
0	3030	22765	50
0	3042	22784	51
0	3047	22848	50
0	3051	22848	51
0	3056	22904	50
0	3062	22912	51
0	3063	22920	50
0	3071	22976	51
0	3072	23018	50
0	3078	23040	51
0	3083	23081	50
0	3088	23093	49
0	3094	23104	50
0	3098	23168	51
0	3100	23232	52
0	3101	23241	51
0	3106	23257	50
0	3112	23296	51
0	3118	23360	52
0	3122	23424	53
0	3124	23488	54
0	3128	23552	55
0	3129	23565	54
0	3134	23568	53
0	3139	23590	52
0	3145	23616	53
0	3146	23644	52
0	3151	23669	51
0	3156	23680	52
0	3161	23744	53
0	3166	23770	52
0	3173	23783	51
0	3179	23808	52
0	3185	23872	53
0	3186	23904	52
0	3192	23936	53
0	3193	23970	52
0	3203	24000	53
0	3205	24000	54
0	3207	24005	53
0	3217	24064	54
0	3218	24104	53
0	3226	24128	54
0	3230	24192	55
0	3232	24256	56
0	3233	24309	55
0	3239	24320	56
0	3246	24384	57
0	3252	24448	58
0	3256	24512	59
0	3257	24519	58
0	3263	24576	59
0	3264	24585	58
0	3272	24640	59
0	3278	24704	60
0	3279	24726	59
0	3284	24733	58
0	3292	24768	59
0	3293	24774	58
0	3301	24832	59
0	3304	24864	58
0	3314	24896	59
0	3315	24898	58
0	3322	24942	57
0	3328	24960	58
0	3329	25023	57
0	3335	25024	58
0	3339	25088	59
0	3341	25152	60
0	3342	25172	59
0	3349	25205	58
0	3355	25216	59
0	3358	25258	58
0	3366	25280	59
0	3368	25344	60
0	3369	25378	59
0	3375	25408	60
0	3376	25435	59
0	3384	25472	60
0	3390	25518	59
0	3396	25536	60
0	3402	25600	61
0	3403	25655	60
0	3409	25664	61
0	3412	25722	60
0	3418	25728	61
0	3423	25754	60
0	3429	25792	61
0	3430	25795	60
0	3436	25856	61
0	3437	25873	60
0	3446	25915	59
0	3452	25920	60
0	3456	25984	61
0	3457	26023	60
0	3465	26048	61
0	3475	26112	62
0	3477	26176	63
0	3479	26240	64
0	3481	26304	65
0	3482	26352	64
0	3487	26353	63
0	3493	26368	64
0	3496	26410	63
0	3502	26432	64
0	3503	26469	63
0	3511	26496	64
0	3512	26507	63
0	3519	26544	62
0	3527	26560	63
0	3530	26603	62
0	3536	26624	63
0	3537	26648	62
0	3543	26688	63
0	3549	26752	64
0	3551	26816	65
0	3552	26834	64
0	3558	26880	65
0	3559	26907	64
0	3566	26933	63
0	3572	26944	64
0	3573	26958	63
0	3582	27008	64
0	3584	27072	65
0	3585	27084	64
0	3592	27098	63
0	3596	27129	62
0	3601	27136	63
0	3603	27200	64
0	3608	27263	63
0	3613	27264	64
0	3614	27300	63
0	3619	27328	64
0	3621	27392	65
0	3629	27456	66
0	3633	27520	67
0	3641	27584	68
0	3645	27648	69
0	3649	27712	70
0	3651	27776	71
0	3655	27840	72
0	3657	27904	73
0	3658	27930	72
0	3664	27968	73
0	3665	27981	72
0	3671	28032	73
0	3675	28096	74
0	3676	28146	73
0	3682	28160	74
0	3688	28224	75
0	3692	28288	76
0	3693	28306	75
0	3699	28352	76
0	3700	28402	75
0	3706	28416	76
0	3712	28480	77
0	3716	28520	76
0	3722	28544	77
0	3726	28608	78
0	3727	28620	77
0	3731	28620	76
0	3741	28642	75
0	3749	28672	76
0	3755	28736	77
0	3757	28800	78
0	3758	28844	77
0	3766	28864	78
0	3768	28928	79
0	3769	28958	78
0	3775	28992	79
0	3778	29043	78
0	3784	29056	79
0	3787	29088	78
0	3793	29120	79
0	3794	29136	78
0	3803	29172	77
0	3809	29184	78
0	3810	29185	77
0	3815	29188	76
0	3823	29248	77
0	3825	29264	76
0	3834	29312	77
0	3836	29376	78
0	3837	29393	77
0	3845	29440	78
0	3847	29504	79
0	3849	29568	80
0	3851	29632	81
0	3852	29646	80
0	3858	29696	81
0	3862	29760	82
0	3863	29770	81
0	3869	29824	82
0	3870	29832	81
0	3878	29888	82
0	3880	29952	83
0	3887	30000	84
0	3891	30016	85
0	3898	30080	86
0	3903	30132	85
0	3909	30144	86
0	3913	30208	87
0	3917	30272	88
0	3918	30280	87
0	3928	30336	88
0	3930	30400	89
0	3934	30464	90
0	3936	30528	91
0	3938	30592	92
0	3940	30656	93
0	3941	30671	92
0	3951	30720	93
0	3953	30784	94
0	3954	30817	93
0	3960	30848	94
0	3961	30851	93
0	3969	30912	94
0	3970	30915	93
0	3978	30976	94
0	3979	30992	93
0	3985	31040	94
0	3987	31104	95
0	3988	31163	94
0	3994	31168	95
0	3996	31232	96
0	3999	31273	95
0	4005	31296	96
0	4009	31360	97
0	4011	31424	98
0	4013	31488	99
0	4018	31552	100
0	4020	31616	101
0	4023	31678	100
0	4029	31680	101
0	4032	31715	100
0	4037	31732	99
0	4043	31744	100
0	4049	31808	101
0	4050	31867	100
0	4056	31872	101
0	4058	31936	102
0	4062	32000	103
0	4063	32027	102
0	4068	32040	101
0	4074	32064	102
0	4075	32079	101
0	4085	32128	102
0	4088	32154	101
0	4098	32192	102
0	4101	32213	101
0	4106	32219	100
0	4114	32256	101
0	4115	32284	100
0	4123	32320	101
0	4126	32354	100
0	4132	32384	101
0	4133	32398	100
0	4143	32448	101
0	4144	32484	100
0	4151	32503	99
0	4157	32512	100
0	4158	32576	99
0	4162	32576	100
0	4167	32624	99
0	4175	32640	100
0	4178	32700	99
0	4184	32704	100
0	4188	32768	101
0	4191	32802	100
0	4198	32825	99
0	4204	32832	100
0	4208	32896	101
0	4211	32925	100
0	4216	32956	99
0	4221	32957	98
0	4227	32960	99
0	4232	33024	100
0	4233	33026	99
0	4241	33088	100
0	4246	33117	99
0	4251	33149	98
0	4257	33152	99
0	4265	33216	100
0	4269	33280	101
0	4270	33310	100
0	4280	33344	101
0	4281	33378	100
0	4286	33391	99
0	4292	33408	100
0	4294	33472	101
0	4298	33536	102
0	4302	33600	103
0	4303	33627	102
0	4309	33664	103
0	4313	33728	104
0	4314	33749	103
0	4319	33786	102
0	4325	33792	103
0	4329	33856	104
0	4333	33920	105
0	4334	33966	104
0	4339	33972	103
0	4345	33984	104
0	4348	34006	103
0	4356	34048	104
0	4357	34109	103
0	4362	34111	102
0	4368	34112	103
0	4372	34176	104
0	4373	34190	103
0	4380	34207	102
0	4386	34240	103
0	4387	34247	102
0	4395	34304	103
0	4401	34368	104
0	4403	34432	105
0	4406	34458	104
0	4414	34496	105
0	4423	34560	106
0	4424	34571	105
0	4431	34595	104
0	4436	34618	103
0	4443	34624	104
0	4450	34688	105
0	4451	34698	104
0	4458	34718	103
0	4463	34722	102
0	4469	34752	103
0	4473	34816	104
0	4477	34880	105
0	4481	34944	106
0	4483	35008	107
0	4484	35066	106
0	4490	35072	107
0	4491	35082	106
0	4496	35091	105
0	4501	35098	104
0	4506	35129	103
0	4511	35136	102
0	4512	35136	103
0	4519	35161	102
0	4523	35179	101
0	4527	35180	100
0	4532	35200	101
0	4534	35264	102
0	4539	35328	103
0	4546	35379	102
0	4551	35392	103
0	4552	35404	102
0	4559	35417	101
0	4564	35456	102
0	4565	35490	101
0	4570	35520	102
0	4571	35543	101
0	4579	35584	102
0	4584	35648	103
0	4585	35670	102
0	4589	35681	101
0	4600	35712	102
0	4604	35776	101
0	4608	35776	102
0	4611	35840	103
0	4612	35852	102
0	4623	35904	103
0	4627	35913	102
0	4632	35968	103
0	4640	36000	104
0	4647	36032	105
0	4651	36096	106
0	4655	36160	107
0	4656	36164	106
0	4661	36173	105
0	4673	36224	106
0	4675	36288	107
0	4682	36352	108
0	4687	36376	107
0	4697	36416	108
0	4700	36480	107
0	4704	36480	108
0	4707	36520	107
0	4713	36544	108
0	4714	36604	107
0	4720	36608	108
0	4724	36672	109
0	4725	36674	108
0	4733	36736	109
0	4735	36800	110
0	4736	36803	109
0	4742	36864	110
0	4743	36869	109
0	4747	36874	108
0	4756	36928	109
0	4759	36960	108
0	4767	36992	109
0	4770	37001	108
0	4776	37056	109
0	4778	37120	110
0	4781	37144	109
0	4789	37184	110
0	4790	37205	109
0	4800	37248	110
0	4802	37312	111
0	4803	37345	110
0	4810	37357	109
0	4818	37376	110
0	4821	37399	109
0	4829	37440	110
0	4830	37471	109
0	4838	37502	108
0	4844	37504	109
0	4845	37522	108
0	4850	37531	107
0	4854	37535	106
0	4859	37568	107
0	4864	37632	108
0	4869	37696	109
0	4875	37760	110
0	4878	37808	109
0	4884	37824	110
0	4888	37888	111
0	4889	37916	110
0	4893	37916	109
0	4899	37941	108
0	4911	37952	109
0	4912	37957	108
0	4913	37957	107
0	4929	38016	108
0	4933	38080	109
0	4936	38112	108
0	4941	38133	107
0	4947	38144	108
0	4949	38208	109
0	4955	38272	110
0	4957	38336	111
0	4958	38343	110
0	4964	38400	111
0	4965	38409	110
0	4970	38422	109
0	4978	38464	110
0	4982	38528	111
0	4988	38592	112
0	4989	38611	111
0	4995	38656	112
0	4996	38675	111
0	5002	38720	112
0	5003	38752	111
0	5011	38784	112
0	5012	38835	111
0	5020	38848	112
0	5021	38873	111
0	5027	38912	112
0	5028	38951	111
0	5033	38960	110
0	5043	38976	111
0	5050	39040	112
0	5051	39057	111
0	5056	39098	110
0	5062	39104	111
0	5065	39149	110
0	5071	39168	111
0	5074	39192	110
0	5079	39196	109
0	5084	39232	110
0	5089	39267	109
0	5094	39296	110
0	5096	39360	111
0	5107	39396	110
0	5112	39397	109
0	5117	39424	110
0	5118	39447	109
0	5123	39455	108
0	5130	39488	109
0	5132	39552	110
0	5133	39599	109
0	5138	39616	110
0	5139	39623	109
0	5147	39680	110
0	5148	39715	109
0	5159	39744	110
0	5167	39808	111
0	5169	39872	112
0	5175	39936	113
0	5179	40000	114
0	5183	40064	115
0	5184	40117	114
0	5190	40128	115
0	5191	40152	114
0	5197	40192	115
0	5198	40244	114
0	5203	40256	113
0	5207	40256	114
0	5215	40320	115
0	5217	40384	116
0	5218	40391	115
0	5228	40448	116
0	5232	40512	115
0	5236	40512	116
0	5245	40563	115
0	5250	40565	114
0	5257	40574	113
0	5263	40576	114
0	5267	40640	115
0	5270	40702	114
0	5276	40704	115
0	5277	40743	114
0	5283	40768	115
0	5286	40829	114
0	5292	40832	115
0	5298	40896	116
0	5301	40917	115
0	5306	40950	114
0	5312	40960	115
0	5313	40970	114
0	5318	40972	113
0	5322	40981	112
0	5330	41024	113
0	5331	41025	112
0	5338	41061	111
0	5346	41088	112
0	5352	41120	111
0	5360	41152	112
0	5361	41160	111
0	5371	41216	112
0	5372	41273	111
0	5378	41280	112
0	5379	41310	111
0	5385	41344	112
0	5388	41371	111
0	5396	41408	112
0	5400	41472	113
0	5401	41527	112
0	5407	41536	113
0	5410	41578	112
0	5416	41600	113
0	5417	41615	112
0	5425	41664	113
0	5429	41728	114
0	5433	41792	115
0	5435	41856	116
0	5439	41920	117
0	5440	41944	116
0	5446	41984	117
0	5451	42000	118
0	5454	42012	117
0	5465	42048	118
0	5468	42092	117
0	5474	42112	118
0	5478	42176	119
0	5479	42220	118
0	5485	42240	119
0	5486	42245	118
0	5494	42304	119
0	5502	42368	120
0	5505	42397	119
0	5513	42432	120
0	5518	42482	119
0	5524	42496	120
0	5526	42560	121
0	5527	42583	120
0	5532	42597	119
0	5540	42624	120
0	5544	42688	121
0	5546	42752	122
0	5547	42781	121
0	5555	42816	122
0	5557	42880	123
0	5558	42943	122
0	5564	42944	123
0	5565	42960	122
0	5573	43008	123
0	5576	43025	122
0	5586	43072	123
0	5587	43097	122
0	5593	43136	123
0	5594	43138	122
0	5601	43163	121
0	5606	43180	120
0	5611	43196	119
0	5617	43200	120
0	5618	43212	119
0	5622	43217	118
0	5635	43264	119
0	5637	43328	120
0	5638	43380	119
0	5643	43384	118
0	5648	43392	119
0	5654	43456	118
0	5658	43456	119
0	5663	43489	118
0	5674	43520	119
0	5683	43579	118
0	5688	43583	117
0	5694	43584	118
0	5696	43648	119
0	5703	43673	118
0	5709	43712	119
0	5711	43776	120
0	5712	43795	119
0	5717	43805	118
0	5723	43840	119
0	5724	43899	118
0	5729	43904	119
0	5734	43968	120
0	5740	44032	121
0	5741	44034	120
0	5748	44060	119
0	5757	44096	118
0	5761	44096	119
0	5767	44160	120
0	5769	44224	121
0	5770	44244	120
0	5775	44249	119
0	5779	44249	118
0	5786	44288	119
0	5787	44298	118
0	5791	44311	117
0	5802	44352	118
0	5806	44416	119
0	5810	44480	120
0	5814	44544	121
0	5815	44576	120
0	5820	44579	119
0	5826	44608	120
0	5828	44672	121
0	5830	44736	122
0	5831	44743	121
0	5839	44800	122
0	5844	44849	121
0	5850	44864	122
0	5851	44871	121
0	5863	44928	122
0	5864	44965	121
0	5870	44992	122
0	5876	45043	121
0	5883	45053	120
0	5889	45056	121
0	5891	45120	122
0	5894	45130	121
0	5900	45184	122
0	5901	45204	121
0	5909	45248	122
0	5911	45312	123
0	5920	45346	122
0	5926	45376	123
0	5928	45440	124
0	5929	45490	123
0	5935	45504	124
0	5939	45568	125
0	5943	45632	126
0	5944	45658	125
0	5949	45662	124
0	5957	45696	125
0	5959	45760	126
0	5961	45824	127
0	5962	45848	126
0	5967	45861	125
0	5973	45888	126
0	5976	45907	125
0	5984	45952	126
0	5985	45997	125
0	5990	46008	124
0	5996	46016	125
0	5997	46025	124
0	6004	46055	123
0	6011	46075	122
0	6016	46080	123
0	6017	46093	122
0	6028	46144	123
0	6029	46145	122
0	6038	46192	121
0	6044	46208	122
0	6046	46272	123
0	6047	46280	122
0	6051	46287	121
0	6056	46336	122
0	6057	46395	121
0	6062	46400	122
0	6063	46405	121
0	6071	46464	122
0	6076	46528	123
0	6090	46592	124
0	6094	46637	123
0	6099	46656	124
0	6100	46670	123
0	6112	46694	122
0	6122	46720	123
0	6124	46784	124
0	6128	46848	125
0	6130	46912	126
0	6131	46919	125
0	6141	46976	126
0	6143	47040	127
0	6145	47104	128
0	6147	47168	129
0	6148	47169	128
0	6155	47217	127
0	6160	47229	126
0	6166	47232	127
0	6169	47253	126
0	6179	47296	127
0	6181	47360	128
0	6182	47411	127
0	6188	47424	128
0	6192	47488	129
0	6194	47552	130
0	6196	47616	131
0	6197	47666	130
0	6203	47680	131
0	6204	47700	130
0	6210	47744	131
0	6211	47751	130
0	6217	47808	131
0	6218	47819	130
0	6228	47872	129
0	6229	47872	130
0	6236	47922	129
0	6244	47936	130
0	6245	47941	129
0	6261	48000	130
0	6263	48000	131
0	6271	48064	132
0	6272	48109	131
0	6278	48128	132
0	6279	48150	131
0	6284	48158	130
0	6294	48192	131
0	6295	48195	130
0	6300	48207	129
0	6310	48256	130
0	6318	48320	131
0	6319	48349	130
0	6325	48384	131
0	6328	48422	130
0	6336	48448	131
0	6337	48494	130
0	6345	48512	131
0	6349	48576	132
0	6350	48585	131
0	6356	48640	132
0	6357	48679	131
0	6367	48704	132
0	6368	48728	131
0	6376	48768	132
0	6377	48788	131
0	6383	48832	132
0	6384	48854	131
0	6392	48896	132
0	6393	48903	131
0	6398	48936	130
0	6404	48960	131
0	6407	49009	130
0	6413	49024	131
0	6417	49088	132
0	6418	49089	131
0	6424	49152	132
0	6427	49202	131
0	6433	49216	132
0	6438	49280	131
0	6442	49280	132
0	6445	49319	131
0	6451	49344	132
0	6452	49363	131
0	6457	49408	132
0	6466	49472	133
0	6475	49536	134
0	6481	49600	135
0	6482	49606	134
0	6487	49609	133
0	6495	49664	134
0	6499	49728	135
0	6500	49753	134
0	6505	49760	133
0	6510	49776	132
0	6518	49792	133
0	6520	49856	134
0	6521	49904	133
0	6529	49920	134
0	6535	49984	135
0	6539	50048	136
0	6541	50112	137
0	6542	50172	136
0	6548	50176	137
0	6549	50214	136
0	6557	50240	137
0	6558	50264	136
0	6564	50304	137
0	6565	50314	136
0	6570	50332	135
0	6580	50368	136
0	6581	50388	135
0	6587	50432	136
0	6588	50438	135
0	6596	50496	136
0	6599	50543	135
0	6605	50560	136
0	6609	50624	137
0	6610	50678	136
0	6618	50688	137
0	6620	50752	138
0	6621	50757	137
0	6629	50816	138
0	6633	50880	139
0	6634	50904	138
0	6635	50904	137
0	6644	50937	136
0	6650	50944	137
0	6651	50950	136
0	6655	50952	135
0	6660	50956	134
0	6678	51008	135
0	6679	51058	134
0	6685	51072	135
0	6688	51099	134
0	6696	51136	135
0	6699	51182	134
0	6707	51200	135
0	6708	51204	134
0	6716	51264	135
0	6717	51287	134
0	6724	51322	133
0	6730	51328	134
0	6733	51384	133
0	6739	51392	134
0	6740	51398	133
0	6748	51456	134
0	6749	51460	133
0	6757	51520	134
0	6758	51584	133
0	6762	51584	134
0	6767	51605	133
0	6775	51648	134
0	6777	51712	135
0	6781	51776	136
0	6790	51828	135
0	6795	51834	134
0	6801	51840	135
0	6804	51899	134
0	6810	51904	135
0	6811	51953	134
0	6817	51968	135
0	6820	51985	134
0	6832	52032	135
0	6833	52035	134
0	6839	52096	135
0	6840	52139	134
0	6846	52160	135
0	6849	52179	134
0	6856	52194	133
0	6863	52220	132
0	6869	52224	133
0	6870	52288	132
0	6874	52288	133
0	6877	52296	132
0	6885	52352	133
0	6891	52416	134
0	6894	52474	133
0	6900	52480	134
0	6904	52515	133
0	6910	52544	134
0	6912	52608	135
0	6913	52656	134
0	6919	52672	135
0	6927	52736	136
0	6928	52746	135
0	6936	52800	136
0	6942	52864	137
0	6945	52876	136
0	6951	52928	137
0	6952	52961	136
0	6960	52992	137
0	6962	53056	138
0	6963	53079	137
0	6971	53120	138
0	6977	53184	139
0	6978	53240	138
0	6984	53248	139
0	6986	53312	140
0	6988	53376	141
0	6990	53440	142
0	6993	53460	141
0	6999	53504	142
0	7000	53527	141
0	7005	53550	140
0	7011	53568	141
0	7012	53584	140
0	7017	53606	139
0	7024	53628	138
0	7029	53632	139
0	7031	53696	140
0	7036	53760	141
0	7042	53824	142
0	7047	53888	141
0	7051	53888	142
0	7054	53894	141
0	7061	53902	140
0	7069	53952	141
0	7070	53984	140
0	7079	54000	141
0	7083	54016	142
0	7091	54043	141
0	7099	54080	142
0	7107	54144	143
0	7108	54156	142
0	7116	54208	143
0	7120	54272	144
0	7121	54299	143
0	7129	54336	144
0	7133	54400	145
0	7135	54464	146
0	7137	54528	147
0	7139	54592	148
0	7140	54605	147
0	7145	54607	146
0	7153	54656	147
0	7154	54668	146
0	7160	54720	147
0	7163	54739	146
0	7168	54777	145
0	7174	54784	146
0	7178	54848	147
0	7179	54865	146
0	7187	54912	147
0	7191	54976	148
0	7192	54980	147
0	7198	55040	148
0	7199	55048	147
0	7206	55095	146
0	7214	55104	147
0	7215	55122	146
0	7221	55168	147
0	7224	55199	146
0	7232	55232	147
0	7238	55296	148
0	7239	55359	147
0	7245	55360	148
0	7247	55424	149
0	7249	55488	150
0	7250	55490	149
0	7260	55515	148
0	7269	55550	147
0	7275	55552	148
0	7279	55616	149
0	7285	55680	150
0	7286	55721	149
0	7294	55744	150
0	7298	55808	151
0	7299	55847	150
0	7304	55848	149
0	7310	55872	150
0	7311	55890	149
0	7316	55908	148
0	7321	55909	147
0	7329	55936	148
0	7333	56000	149
0	7335	56064	150
0	7339	56128	151
0	7342	56140	150
0	7352	56192	151
0	7353	56211	150
0	7358	56224	149
0	7364	56256	150
0	7365	56316	149
0	7371	56320	150
0	7372	56324	149
0	7384	56384	150
0	7388	56448	151
0	7389	56478	150
0	7394	56482	149
0	7402	56512	150
0	7403	56548	149
0	7408	56574	148
0	7414	56576	149
0	7416	56640	150
0	7418	56704	151
0	7424	56768	152
0	7425	56785	151
0	7433	56832	152
0	7434	56839	151
0	7439	56853	150
0	7447	56896	151
0	7450	56924	150
0	7457	56957	149
0	7463	56960	150
0	7470	57024	151
0	7472	57088	152
0	7475	57142	151
0	7481	57152	152
0	7483	57216	153
0	7485	57280	154
0	7486	57341	153
0	7492	57344	154
0	7493	57378	153
0	7498	57397	152
0	7504	57408	153
0	7512	57472	154
0	7513	57505	153
0	7518	57523	152
0	7524	57536	153
0	7528	57600	154
0	7531	57636	153
0	7537	57664	154
0	7541	57728	155
0	7542	57736	154
0	7549	57745	153
0	7559	57792	154
0	7562	57813	153
0	7568	57856	154
0	7571	57914	153
0	7577	57920	154
0	7578	57937	153
0	7583	57959	152
0	7587	57975	151
0	7591	57978	150
0	7599	57984	151
0	7607	58048	152
0	7615	58112	153
0	7617	58176	154
0	7621	58240	155
0	7622	58247	154
0	7629	58266	153
0	7635	58304	154
0	7637	58368	155
0	7638	58378	154
0	7643	58386	153
0	7648	58388	152
0	7653	58393	151
0	7661	58432	152
0	7665	58496	153
0	7672	58560	154
0	7674	58624	155
0	7678	58688	156
0	7680	58752	157
0	7688	58816	158
0	7692	58880	159
0	7693	58932	158
0	7699	58944	159
0	7700	58989	158
0	7706	59008	159
0	7710	59072	160