version 3
run General-5-20240513-00:14:51-20028
attr configname General
attr datetime 20240513-00:14:51
attr datetimef 20240513-001451
attr experiment General
attr inifile omnetpp.ini
attr iterationvars ""
attr iterationvarsd ""
attr iterationvarsf ""
attr measurement ""
attr network AirportControl
attr processid 20028
attr repetition 5
attr replication #5
attr resultdir results
attr runnumber 5
attr seedset 5
config network AirportControl
config repeat 10
config simtime-resolution s
config sim-time-limit 1440min
config **.PrioT_PCT.jobType 0
config **.PrioT_PCF.jobType 1
config **.PrioF_PCT.jobType 2
config **.PrioF_PCF.jobType 3
config **.PrioT_PCT.probArrival 0.04
config **.PrioT_PCF.probArrival 0.01
config **.PrioF_PCT.probArrival 0.01
config **.PrioF_PCF.probArrival 0.94
config **.PrioT_PCT.interarrivalRateRush 0.4min
config **.PrioT_PCF.interarrivalRateRush 0.4min
config **.PrioF_PCT.interarrivalRateRush 0.4min
config **.PrioF_PCF.interarrivalRateRush 0.4min
config **.PrioF_PCF.interarrivalRateNormal 1min
config **.PrioT_PCT.interarrivalRateNormal 1min
config **.PrioF_PCT.interarrivalRateNormal 1min
config **.PrioT_PCF.interarrivalRateNormal 1min
config **.PrioF_PCF.numberOfPeaks 4
config **.PrioF_PCT.numberOfPeaks 4
config **.PrioT_PCF.numberOfPeaks 4
config **.PrioT_PCT.numberOfPeaks 4
config **.PrioF_PCF.durationOfPeaks 150min
config **.PrioF_PCT.durationOfPeaks 150min
config **.PrioT_PCF.durationOfPeaks 150min
config **.PrioT_PCT.durationOfPeaks 150min
config **.PrioT_Server.serviceTime exponential(3min)
config **.PrioF_Server3.serviceTime exponential(5min)
config **.PrioF_Server2.serviceTime exponential(5min)
config **.PrioF_Server1.serviceTime exponential(5min)
config **.PrioF_Server0.serviceTime exponential(5min)
config **.NoPC_Server0.serviceTime exponential(3min)
config **.NoPC_Server3.serviceTime exponential(3min)
config **.NoPC_Server2.serviceTime exponential(3min)
config **.NoPC_Server1.serviceTime exponential(3min)
config **.PC_Server0.serviceTime exponential(1min)
config **.PC_Server1.serviceTime exponential(1min)

vector 0 AirportControl.PrioF_PQ queueLength:vector ETV
attr interpolationmode sample-hold
attr recordingmode vector
attr title "queue length"
vector 1 AirportControl.PrioT_PQ queueLength:vector ETV
attr interpolationmode sample-hold
attr recordingmode vector
attr title "queue length"
vector 2 AirportControl.NoPC_PQ queueLength:vector ETV
attr interpolationmode sample-hold
attr recordingmode vector
attr title "queue length"
vector 3 AirportControl.PC_PQ queueLength:vector ETV
attr interpolationmode sample-hold
attr recordingmode vector
attr title "queue length"
vector 4 AirportControl.sink lifeTime:vector ETV
attr interpolationmode none
attr recordingmode vector
attr title "lifetime of arrived jobs"
attr unit s
0	0	0	0
0	46	320	1
0	47	329	0
0	53	384	1
0	56	408	0
0	64	448	1
0	66	512	2
0	70	576	3
0	71	614	2
0	76	627	1
0	82	640	2
0	83	689	1
0	89	704	2
0	90	714	1
0	94	720	0
0	240	1664	1
0	241	1719	0
0	247	1728	1
0	251	1792	2
0	253	1856	3
0	261	1920	4
0	262	1934	3
0	267	1966	2
0	272	1973	1
0	278	1984	2
0	279	1997	1
0	283	2042	0
0	288	2048	1
0	293	2112	2
0	295	2176	3
0	300	2240	4
0	304	2304	5
0	309	2358	4
0	314	2365	3
0	320	2368	4
0	322	2432	5
0	325	2487	4
0	329	2487	3
0	336	2496	4
0	340	2560	5
0	341	2597	4
0	346	2598	3
0	350	2624	2
0	354	2624	3
0	356	2626	2
0	361	2688	3
0	365	2704	2
0	369	2716	1
0	374	2752	2
0	379	2816	3
0	381	2880	4
0	382	2903	3
0	393	2944	4
0	394	2970	3
0	398	2971	2
0	406	3008	3
0	407	3046	2
0	415	3072	3
0	423	3136	4
0	430	3191	3
0	438	3200	4
0	439	3228	3
0	447	3264	4
0	451	3306	3
0	456	3328	4
0	457	3371	3
0	465	3392	4
0	475	3456	5
0	476	3465	4
0	481	3492	3
0	486	3520	4
0	487	3527	3
0	499	3570	2
0	506	3584	3
0	511	3648	4
0	512	3695	3
0	518	3712	4
0	519	3720	3
0	527	3776	4
0	531	3840	5
0	532	3871	4
0	540	3904	5
0	544	3968	6
0	545	3995	5
0	551	4032	6
0	555	4096	7
0	556	4121	6
0	562	4160	7
0	566	4224	8
0	567	4229	7
0	577	4288	8
0	578	4298	7
0	584	4352	8
0	586	4416	9
0	588	4480	10
0	595	4544	11
0	596	4575	10
0	604	4608	11
0	605	4622	10
0	611	4672	11
0	615	4736	12
0	617	4800	13
0	625	4864	14
0	627	4928	15
0	628	4968	14
0	633	4979	13
0	639	4992	14
0	640	5013	13
0	647	5029	12
0	654	5045	11
0	660	5056	12
0	661	5108	11
0	669	5120	12
0	671	5184	13
0	672	5216	12
0	679	5244	11
0	685	5248	12
0	690	5300	11
0	696	5312	12
0	699	5361	11
0	707	5376	12
0	710	5430	11
0	716	5440	12
0	719	5490	11
0	725	5504	12
0	727	5568	13
0	729	5632	14
0	730	5634	13
0	735	5667	12
0	743	5696	13
0	744	5720	12
0	749	5753	11
0	753	5756	10
0	758	5760	11
0	760	5824	12
0	765	5888	13
0	770	5952	14
0	777	6000	15
0	783	6016	16
0	792	6080	17
0	802	6144	18
0	804	6208	19
0	808	6272	20
0	809	6310	19
0	815	6336	20
0	819	6400	21
0	821	6464	22
0	822	6475	21
0	829	6524	20
0	835	6528	21
0	836	6529	20
0	841	6533	19
0	851	6592	20
0	855	6656	21
0	856	6663	20
0	861	6698	19
0	867	6720	20
0	871	6784	21
0	873	6848	22
0	874	6893	21
0	880	6912	22
0	884	6976	23
0	886	7040	24
0	888	7104	25
0	889	7122	24
0	895	7168	25
0	901	7232	26
0	903	7296	27
0	904	7313	26
0	909	7339	25
0	915	7360	26
0	917	7424	27
0	918	7449	26
0	923	7455	25
0	928	7462	24
0	938	7488	25
0	939	7491	24
0	950	7552	25
0	954	7616	26
0	955	7621	25
0	963	7680	26
0	964	7710	25
0	970	7744	26
0	980	7808	27
0	981	7823	26
0	987	7872	27
0	988	7917	26
0	994	7936	27
0	1000	8000	28
0	1001	8004	27
0	1013	8064	28
0	1014	8124	27
0	1019	8125	26
0	1025	8128	27
0	1027	8192	28
0	1029	8256	29
0	1030	8258	28
0	1037	8281	27
0	1043	8320	28
0	1047	8384	29
0	1050	8438	28
0	1056	8448	29
0	1058	8512	30
0	1060	8576	31
0	1064	8640	32
0	1066	8704	33
0	1067	8754	32
0	1075	8768	33
0	1079	8832	34
0	1080	8874	33
0	1085	8888	32
0	1091	8896	33
0	1092	8900	32
0	1098	8960	33
0	1103	9024	34
0	1105	9088	35
0	1106	9112	34
0	1111	9125	33
0	1121	9152	34
0	1122	9153	33
0	1127	9164	32
0	1131	9179	31
0	1136	9216	32
0	1137	9224	31
0	1142	9280	32
0	1144	9344	33
0	1156	9408	34
0	1160	9432	33
0	1168	9472	34
0	1174	9536	35
0	1175	9550	34
0	1185	9600	35
0	1189	9664	36
0	1190	9690	35
0	1196	9716	34
0	1203	9728	35
0	1207	9792	36
0	1208	9798	35
0	1214	9856	36
0	1215	9873	35
0	1223	9920	36
0	1224	9929	35
0	1232	9984	36
0	1233	10009	35
0	1238	10028	34
0	1244	10048	35
0	1250	10112	36
0	1256	10176	37
0	1257	10207	36
0	1263	10240	37
0	1265	10304	38
0	1267	10368	39
0	1268	10397	38
0	1275	10428	37
0	1281	10432	38
0	1282	10448	37
0	1289	10489	36
0	1295	10496	37
0	1301	10516	36
0	1306	10531	35
0	1307	10531	34
0	1315	10548	33
0	1323	10560	34
0	1324	10596	33
0	1329	10624	34
0	1330	10657	33
0	1341	10688	34
0	1342	10710	33
0	1347	10752	34
0	1353	10816	35
0	1365	10880	36
0	1369	10944	37
0	1371	11008	38
0	1374	11054	37
0	1382	11072	38
0	1383	11083	37
0	1388	11095	36
0	1394	11136	37
0	1398	11200	38
0	1399	11203	37
0	1409	11264	38
0	1411	11328	39
0	1412	11337	38
0	1422	11392	39
0	1423	11449	38
0	1429	11456	39
0	1433	11520	40
0	1435	11584	41
0	1437	11648	42
0	1438	11660	41
0	1443	11694	40
0	1449	11712	41
0	1450	11727	40
0	1456	11776	41
0	1458	11840	42
0	1460	11904	43
0	1461	11919	42
0	1468	11955	41
0	1474	11968	42
0	1479	12000	43
0	1487	12032	44
0	1488	12038	43
0	1492	12060	42
0	1501	12096	43
0	1505	12160	44
0	1513	12224	45
0	1514	12236	44
0	1518	12274	43
0	1523	12288	44
0	1531	12352	45
0	1540	12416	46
0	1543	12458	45
0	1549	12480	46
0	1551	12544	47
0	1555	12608	48
0	1557	12672	49
0	1560	12721	48
0	1566	12736	49
0	1567	12741	48
0	1572	12759	47
0	1579	12766	46
0	1585	12800	47
0	1589	12864	48
0	1591	12928	49
0	1592	12946	48
0	1597	12972	47
0	1603	12992	48
0	1608	13017	47
0	1616	13056	48
0	1618	13120	49
0	1622	13184	50
0	1623	13226	49
0	1631	13248	50
0	1632	13250	49
0	1640	13312	50
0	1642	13376	51
0	1643	13431	50
0	1649	13440	51
0	1656	13504	52
0	1657	13505	51
0	1663	13568	52
0	1671	13632	53
0	1672	13649	52
0	1680	13696	53
0	1683	13716	52
0	1689	13760	53
0	1690	13764	52
0	1696	13824	53
0	1697	13852	52
0	1705	13888	53
0	1707	13952	54
0	1708	13959	53
0	1718	14016	54
0	1721	14051	53
0	1729	14080	54
0	1730	14086	53
0	1735	14093	52
0	1740	14094	51
0	1751	14137	50
0	1757	14144	51
0	1758	14194	50
0	1766	14208	51
0	1767	14209	50
0	1775	14272	51
0	1779	14336	52
0	1781	14400	53
0	1785	14464	54
0	1786	14470	53
0	1791	14478	52
0	1797	14528	53
0	1801	14592	54
0	1803	14656	55
0	1804	14717	54
0	1805	14717	53
0	1815	14720	54
0	1818	14761	53
0	1824	14784	54
0	1830	14848	55
0	1832	14912	56
0	1836	14976	57
0	1840	15025	56
0	1846	15040	57
0	1847	15048	56
0	1853	15104	57
0	1861	15168	58
0	1864	15195	57
0	1874	15232	58
0	1876	15296	59
0	1877	15310	58
0	1882	15339	57
0	1890	15360	58
0	1892	15424	59
0	1893	15450	58
0	1899	15488	59
0	1902	15535	58
0	1908	15552	59
0	1909	15557	58
0	1914	15588	57
0	1919	15592	56
0	1927	15616	57
0	1928	15646	56
0	1929	15646	55
0	1942	15665	54
0	1950	15680	55
0	1951	15685	54
0	1956	15744	55
0	1962	15793	54
0	1967	15803	53
0	1972	15808	54
0	1977	15872	55
0	1985	15936	56
0	1986	15953	55
0	1993	15975	54
0	1999	16000	55
0	2000	16005	54
0	2008	16064	55
0	2009	16097	54
0	2015	16128	55
0	2019	16192	56
0	2020	16241	55
0	2026	16256	56
0	2029	16304	55
0	2037	16320	56
0	2039	16384	57
0	2040	16398	56
0	2046	16448	57
0	2047	16453	56
0	2058	16512	57
0	2059	16518	56
0	2064	16526	55
0	2071	16551	54
0	2079	16576	55
0	2083	16640	56
0	2084	16648	55
0	2094	16704	56
0	2095	16761	55
0	2101	16768	56
0	2104	16799	55
0	2110	16832	56
0	2112	16896	57
0	2113	16929	56
0	2119	16960	57
0	2121	17024	58
0	2125	17088	59
0	2129	17152	60
0	2130	17171	59
0	2142	17216	60
0	2143	17219	59
0	2149	17280	60
0	2154	17321	59
0	2159	17338	58
0	2167	17344	59
0	2172	17385	58
0	2177	17388	57
0	2181	17388	56
0	2188	17408	57
0	2194	17472	58
0	2197	17531	57
0	2203	17536	58
0	2204	17542	57
0	2213	17584	56
0	2219	17600	57
0	2223	17664	58
0	2225	17728	59
0	2227	17792	60
0	2230	17846	59
0	2236	17856	60
0	2238	17920	61
0	2239	17945	60
0	2244	17948	59
0	2250	17984	60
0	2257	18000	61
0	2261	18048	62
0	2270	18112	63
0	2274	18176	64
0	2277	18220	63
0	2287	18240	64
0	2288	18287	63
0	2296	18304	64
0	2299	18358	63
0	2305	18368	64
0	2307	18432	65
0	2308	18465	64
0	2314	18496	65
0	2316	18560	66
0	2318	18624	67
0	2320	18688	68
0	2321	18694	67
0	2328	18721	66
0	2336	18752	67
0	2339	18802	66
0	2345	18816	67
0	2349	18880	68
0	2350	18925	67
0	2360	18944	68
0	2361	18946	67
0	2366	18965	66
0	2371	18975	65
0	2379	19008	66
0	2380	19014	65
0	2386	19072	66
0	2387	19088	65
0	2391	19115	64
0	2395	19120	63
0	2400	19136	64
0	2402	19200	65
0	2404	19264	66
0	2412	19328	67
0	2416	19377	66
0	2420	19387	65
0	2425	19392	66
0	2430	19456	67
0	2439	19518	66
0	2446	19520	67
0	2455	19584	68
0	2456	19587	67
0	2468	19648	68
0	2469	19649	67
0	2475	19712	68
0	2481	19776	69
0	2482	19826	68
0	2488	19840	69
0	2490	19904	70
0	2492	19968	71
0	2493	20018	70
0	2501	20032	71
0	2502	20036	70
0	2509	20081	69
0	2515	20096	70
0	2517	20160	71
0	2521	20224	72
0	2523	20288	73
0	2524	20317	72
0	2529	20338	71
0	2535	20352	72
0	2536	20407	71
0	2542	20416	72
0	2543	20442	71
0	2553	20480	72
0	2557	20544	73
0	2558	20573	72
0	2566	20608	73
0	2568	20672	74
0	2569	20696	73
0	2577	20736	74
0	2579	20800	75
0	2581	20864	76
0	2584	20918	75
0	2590	20928	76
0	2591	20962	75
0	2597	20992	76
0	2602	21056	77
0	2608	21120	78
0	2616	21184	79
0	2617	21231	78
0	2623	21248	79
0	2624	21282	78
0	2630	21312	79
0	2631	21340	78
0	2643	21376	79
0	2644	21411	78
0	2652	21440	79
0	2653	21470	78
0	2659	21504	79
0	2660	21515	78
0	2672	21568	79
0	2673	21575	78
0	2678	21587	77
0	2688	21632	78
0	2690	21696	79
0	2691	21726	78
0	2697	21760	79
0	2698	21790	78
0	2703	21795	77
0	2710	21821	76
0	2716	21824	77
0	2722	21888	78
0	2723	21907	77
0	2728	21910	76
0	2736	21952	77
0	2737	21956	76
0	2746	21993	75
0	2751	22001	74
0	2757	22016	75
0	2761	22080	76
0	2762	22087	75
0	2767	22099	74
0	2772	22110	73
0	2779	22114	72
0	2783	22134	71
0	2788	22144	72
0	2789	22147	71
0	2794	22208	72
0	2807	22272	73
0	2815	22336	74
0	2817	22400	75
0	2818	22407	74
0	2824	22464	75
0	2825	22490	74
0	2834	22528	75
0	2835	22543	74
0	2840	22565	73
0	2846	22592	74
0	2854	22656	75
0	2855	22660	74
0	2860	22662	73
0	2864	22679	72
0	2871	22708	71
0	2879	22720	72
0	2880	22779	71
0	2887	22784	72
0	2891	22832	71
0	2897	22848	72
0	2898	22849	71
0	2905	22863	70
0	2920	22912	71
0	2921	22932	70
0	2929	22976	71
0	2933	23040	72
0	2934	23073	71
0	2940	23104	72
0	2941	23137	71
0	2946	23149	70
0	2956	23168	71
0	2957	23223	70
0	2963	23232	71
0	2969	23296	72
0	2970	23326	71
0	2975	23332	70
0	2982	23353	69
0	2988	23360	70
0	2992	23424	71
0	2995	23459	70
0	3003	23488	71
0	3006	23492	70
0	3016	23552	71
0	3017	23577	70
0	3022	23597	69
0	3028	23616	70
0	3031	23673	69
0	3037	23680	70
0	3038	23737	69
0	3044	23744	70
0	3048	23808	71
0	3049	23838	70
0	3056	23863	69
0	3064	23872	70
0	3068	23936	71
0	3076	24000	72
0	3078	24000	73
0	3081	24064	74
0	3083	24128	75
0	3085	24192	76
0	3094	24256	77
0	3096	24320	78
0	3098	24384	79
0	3100	24448	80
0	3102	24512	81
0	3108	24576	82
0	3112	24640	83
0	3113	24655	82
0	3118	24673	81
0	3126	24704	82
0	3128	24768	83
0	3130	24832	84
0	3131	24848	83
0	3136	24884	82
0	3142	24896	83
0	3144	24960	84
0	3148	25024	85
0	3149	25027	84
0	3155	25088	85
0	3157	25152	86
0	3161	25216	87
0	3162	25267	86
0	3168	25280	87
0	3171	25311	86
0	3176	25317	85
0	3188	25344	86
0	3189	25345	85
0	3197	25408	86
0	3199	25472	87
0	3203	25503	86
0	3213	25536	87
0	3214	25544	86
0	3222	25600	87
0	3226	25664	88
0	3229	25704	87
0	3234	25715	86
0	3240	25728	87
0	3241	25779	86
0	3247	25792	87
0	3248	25812	86
0	3253	25856	87
0	3257	25878	86
0	3262	25920	87
0	3267	25984	88
0	3271	26048	89
0	3277	26112	90
0	3278	26130	89
0	3284	26176	90
0	3285	26196	89
0	3293	26240	90
0	3294	26272	89
0	3300	26304	90
0	3301	26312	89
0	3311	26368	90
0	3312	26419	89
0	3318	26432	90
0	3319	26451	89
0	3325	26496	90
0	3329	26560	91
0	3330	26594	90
0	3336	26624	91
0	3339	26670	90
0	3345	26688	91
0	3350	26736	90
0	3356	26752	91
0	3361	26808	90
0	3369	26816	91
0	3371	26880	92
0	3372	26897	91
0	3380	26944	92
0	3383	26976	91
0	3392	27008	92
0	3393	27053	91
0	3399	27072	92
0	3400	27081	91
0	3408	27136	92
0	3410	27200	93
0	3418	27264	94
0	3421	27308	93
0	3429	27328	94
0	3431	27392	95
0	3433	27456	96
0	3434	27484	95
0	3440	27520	96
0	3442	27584	97
0	3445	27617	96
0	3451	27648	97
0	3454	27683	96
0	3460	27712	97
0	3462	27776	98
0	3463	27809	97
0	3469	27840	98
0	3470	27889	97
0	3476	27904	98
0	3477	27908	97
0	3481	27911	96
0	3485	27930	95
0	3492	27967	94
0	3497	27968	95
0	3501	27999	94
0	3506	28032	95
0	3507	28056	94
0	3511	28074	93
0	3519	28096	94
0	3520	28109	93
0	3524	28128	92
0	3529	28160	93
0	3530	28196	92
0	3534	28199	91
0	3538	28214	90
0	3543	28224	91
0	3550	28274	90
0	3555	28288	91
0	3556	28326	90
0	3560	28331	89
0	3568	28352	90
0	3576	28416	91
0	3581	28480	92
0	3586	28544	93
0	3590	28591	92
0	3595	28608	93
0	3604	28672	94
0	3616	28710	93
0	3621	28736	94
0	3622	28763	93
0	3636	28800	94
0	3641	28864	95
0	3647	28928	96
0	3650	28976	95
0	3656	28992	96
0	3660	29056	97
0	3661	29066	96
0	3669	29120	97
0	3671	29184	98
0	3673	29248	99
0	3677	29312	100
0	3679	29376	101
0	3681	29440	102
0	3682	29473	101
0	3688	29504	102
0	3691	29513	101
0	3697	29568	102
0	3698	29600	101
0	3699	29600	100
0	3713	29632	101
0	3714	29657	100
0	3720	29696	101
0	3723	29720	100
0	3732	29760	101
0	3735	29824	102
0	3736	29871	101
0	3744	29888	102
0	3746	29952	103
0	3747	29985	102
0	3758	30000	103
0	3762	30016	104
0	3763	30047	103
0	3769	30080	104
0	3770	30106	103
0	3776	30144	104
0	3777	30163	103
0	3785	30208	104
0	3786	30259	103
0	3792	30272	104
0	3793	30290	103
0	3798	30297	102
0	3806	30336	103
0	3812	30400	104
0	3813	30461	103
0	3819	30464	104
0	3821	30528	105
0	3822	30542	104
0	3827	30552	103
0	3839	30592	104
0	3840	30613	103
0	3845	30631	102
0	3852	30656	103
0	3854	30720	104
0	3861	30735	103
0	3865	30736	102
0	3872	30750	101
0	3879	30778	100
0	3884	30784	101
0	3892	30848	102
0	3893	30875	101
0	3905	30912	102
0	3913	30976	103
0	3914	30985	102
0	3920	31040	103
0	3922	31104	104
0	3930	31168	105
0	3932	31232	106
0	3934	31296	107
0	3935	31307	106
0	3941	31360	107
0	3945	31424	108
0	3947	31488	109
0	3951	31511	108
0	3956	31516	107
0	3961	31519	106
0	3967	31552	107
0	3970	31568	106
0	3982	31616	107
0	3985	31651	106
0	3991	31680	107
0	3995	31744	108
0	3997	31808	109
0	3998	31817	108
0	4005	31838	107
0	4011	31872	108
0	4015	31936	109
0	4017	32000	110
0	4018	32031	109
0	4026	32064	110
0	4027	32094	109
0	4033	32128	110
0	4039	32192	111
0	4041	32256	112
0	4043	32320	113
0	4044	32328	112
0	4053	32381	111
0	4059	32384	112
0	4060	32445	111
0	4066	32448	112
0	4067	32505	111
0	4073	32512	112
0	4076	32550	111
0	4081	32557	110
0	4089	32576	111
0	4092	32599	110
0	4097	32624	109
0	4103	32640	110
0	4104	32653	109
0	4116	32704	110
0	4117	32722	109
0	4122	32738	108
0	4127	32764	107
0	4135	32768	108
0	4141	32832	109
0	4142	32887	108
0	4148	32896	109
0	4152	32960	110
0	4158	33012	109
0	4164	33024	110
0	4169	33035	109
0	4177	33088	110
0	4181	33152	111
0	4184	33172	110
0	4189	33176	109
0	4194	33201	108
0	4200	33216	109
0	4201	33229	108
0	4209	33280	109
0	4210	33300	108
0	4214	33329	107
0	4222	33344	108
0	4224	33408	109
0	4228	33442	108
0	4232	33456	107
0	4240	33472	108
0	4241	33488	107
0	4252	33536	108
0	4258	33600	109
0	4259	33621	108
0	4269	33664	109
0	4271	33728	110
0	4272	33748	109
0	4278	33792	110
0	4279	33841	109
0	4285	33856	110
0	4287	33920	111
0	4289	33984	112
0	4290	34012	111
0	4298	34048	112
0	4299	34056	111
0	4305	34112	112
0	4309	34176	113
0	4315	34240	114
0	4317	34304	115
0	4318	34307	114
0	4325	34359	113
0	4331	34368	114
0	4334	34388	113
0	4339	34408	112
0	4346	34424	111
0	4352	34432	112
0	4355	34475	111
0	4360	34486	110
0	4366	34496	111
0	4374	34550	110
0	4380	34556	109
0	4385	34560	110
0	4386	34567	109
0	4390	34581	108
0	4401	34624	109
0	4402	34625	108
0	4413	34688	109
0	4418	34752	110
0	4422	34816	111
0	4423	34834	110
0	4430	34863	109
0	4436	34880	110
0	4437	34890	109
0	4442	34944	110
0	4443	34975	109
0	4447	34996	108
0	4452	35008	109
0	4453	35037	108
0	4457	35044	107
0	4462	35072	108
0	4466	35100	107
0	4473	35126	106
0	4478	35127	105
0	4488	35136	106
0	4493	35200	107
0	4497	35232	106
0	4505	35264	107
0	4506	35307	106
0	4511	35328	107
0	4516	35392	108
0	4518	35456	109
0	4522	35479	108
0	4530	35520	109
0	4531	35531	108
0	4535	35537	107
0	4545	35572	106
0	4549	35577	105
0	4554	35584	106
0	4559	35648	107
0	4570	35690	106
0	4576	35712	107
0	4577	35714	106
0	4586	35742	105
0	4591	35743	104
0	4597	35776	105
0	4601	35840	106
0	4606	35866	105
0	4614	35904	106
0	4615	35960	105
0	4621	35968	106
0	4628	36000	107
0	4632	36032	108
0	4634	36096	109
0	4638	36160	110
0	4639	36185	109
0	4644	36210	108
0	4650	36224	109
0	4656	36245	108
0	4665	36269	107
0	4673	36288	108
0	4676	36322	107
0	4681	36352	108
0	4682	36392	107
0	4687	36416	108
0	4688	36460	107
0	4693	36480	108
0	4695	36544	109
0	4697	36608	110
0	4698	36618	109
0	4702	36653	108
0	4707	36672	109
0	4715	36736	110
0	4720	36800	111
0	4721	36837	110
0	4729	36864	111
0	4733	36916	110
0	4738	36928	111
0	4739	36933	110
0	4750	36992	111
0	4755	37056	112
0	4760	37118	111
0	4766	37120	112
0	4769	37148	111
0	4775	37184	112
0	4777	37248	113
0	4781	37312	114
0	4782	37320	113
0	4787	37338	112
0	4795	37376	113
0	4796	37427	112
0	4802	37440	113
0	4817	37504	114
0	4818	37538	113
0	4824	37568	114
0	4832	37632	115
0	4833	37680	114
0	4839	37696	115
0	4842	37759	114
0	4848	37760	115
0	4849	37767	114
0	4855	37824	115
0	4856	37831	114
0	4865	37882	113
0	4871	37888	114
0	4872	37897	113
0	4878	37952	114
0	4882	38016	115
0	4884	38080	116
0	4885	38142	115
0	4891	38144	116
0	4893	38208	117
0	4894	38212	116
0	4904	38272	117
0	4905	38318	116
0	4913	38336	117
0	4915	38400	118
0	4916	38425	117
0	4924	38464	118
0	4926	38528	119
0	4930	38592	120
0	4932	38656	121
0	4936	38720	122
0	4937	38721	121
0	4942	38731	120
0	4947	38742	119
0	4955	38784	120
0	4956	38815	119
0	4966	38848	120
0	4967	38854	119
0	4972	38905	118
0	4978	38912	119
0	4979	38952	118
0	4985	38976	119
0	4993	39019	118
0	4999	39040	119
0	5002	39051	118
0	5007	39063	117
0	5019	39104	118
0	5026	39153	117
0	5032	39168	118
0	5033	39209	117
0	5039	39232	118
0	5043	39296	119
0	5045	39360	120
0	5046	39399	119
0	5052	39424	120
0	5053	39429	119
0	5060	39467	118
0	5067	39480	117
0	5073	39488	118
0	5074	39505	117
0	5078	39536	116
0	5083	39552	117
0	5084	39566	116
0	5089	39616	117
0	5090	39661	116
0	5095	39680	117
0	5096	39703	116
0	5103	39736	115
0	5111	39744	116
0	5113	39808	117
0	5114	39845	116
0	5119	39872	117
0	5121	39936	118
0	5122	39947	117
0	5135	39972	116
0	5140	40000	117
0	5145	40064	118
0	5146	40097	117
0	5150	40114	116
0	5155	40128	117
0	5157	40192	118
0	5159	40256	119
0	5164	40320	120
0	5169	40384	121
0	5177	40448	122
0	5182	40512	123
0	5186	40526	122
0	5194	40576	123
0	5198	40640	124
0	5204	40704	125
0	5210	40768	126
0	5213	40800	125
0	5221	40832	126
0	5222	40847	125
0	5230	40896	126
0	5231	40905	125
0	5236	40906	124
0	5241	40932	123
0	5247	40960	124
0	5248	41016	123
0	5256	41024	124
0	5262	41048	123
0	5268	41088	122
0	5272	41088	123
0	5275	41089	122
0	5280	41106	121
0	5292	41152	122
0	5296	41216	123
0	5297	41279	122
0	5303	41280	123
0	5304	41305	122
0	5309	41329	121
0	5315	41344	122
0	5316	41395	121
0	5321	41408	122
0	5322	41420	121
0	5326	41438	120
0	5333	41466	119
0	5338	41472	120
0	5345	41511	119
0	5350	41536	120
0	5355	41600	121
0	5356	41611	120
0	5360	41639	119
0	5364	41640	118
0	5372	41664	119
0	5373	41666	118
0	5377	41679	117
0	5385	41728	118
0	5386	41731	117
0	5400	41792	118
0	5402	41856	119
0	5407	41920	120
0	5408	41980	119
0	5413	41984	120
0	5424	42000	121
0	5428	42048	122
0	5429	42071	121
0	5439	42112	122
0	5440	42122	121
0	5450	42176	122
0	5451	42184	121
0	5459	42240	122
0	5465	42283	121
0	5470	42285	120
0	5477	42297	119
0	5482	42304	120
0	5483	42341	119
0	5488	42368	120
0	5490	42432	121
0	5492	42496	122
0	5500	42560	123
0	5504	42624	124
0	5513	42687	123
0	5519	42688	124
0	5525	42752	125
0	5526	42785	124
0	5532	42816	125
0	5533	42817	124
0	5541	42880	125
0	5543	42944	126
0	5546	43002	125
0	5552	43008	126
0	5556	43072	127
0	5557	43109	126
0	5563	43136	127
0	5564	43145	126
0	5569	43163	125
0	5577	43200	126
0	5580	43217	125
0	5585	43220	124
0	5590	43228	123
0	5598	43264	124
0	5604	43328	125
0	5605	43362	124
0	5610	43386	123
0	5616	43392	124
0	5617	43400	123
0	5621	43413	122
0	5625	43444	121
0	5630	43456	122
0	5641	43520	123
0	5642	43527	122
0	5649	43538	121
0	5658	43584	122
0	5668	43648	123
0	5673	43700	122
0	5679	43712	123
0	5680	43746	122
0	5688	43776	123
0	5689	43806	122
0	5695	43840	123
0	5696	43888	122
0	5704	43904	123
0	5705	43907	122
0	5713	43968	123
0	5714	43979	122
0	5719	44005	121
0	5726	44031	120
0	5731	44032	121
0	5736	44096	122
0	5739	44136	121
0	5747	44160	122
0	5751	44224	123
0	5753	44288	124
0	5754	44317	123
0	5764	44352	124
0	5765	44376	123
0	5773	44416	124
0	5776	44426	123
0	5782	44480	124
0	5786	44544	125
0	5788	44608	126
0	5789	44609	125
0	5796	44671	124
0	5802	44672	125
0	5803	44722	124
0	5811	44736	125
0	5812	44760	124
0	5817	44762	123
0	5822	44778	122
0	5826	44789	121
0	5831	44800	122
0	5832	44810	121
0	5843	44864	122
0	5848	44928	123
0	5849	44936	122
0	5854	44992	123
0	5858	45008	122
0	5862	45012	121
0	5873	45056	122
0	5874	45111	121
0	5879	45120	122
0	5883	45171	121
0	5888	45184	122
0	5898	45248	123
0	5902	45312	124
0	5914	45376	125
0	5916	45440	126
0	5918	45504	127
0	5919	45516	126
0	5924	45558	125
0	5930	45568	126
0	5931	45601	125
0	5937	45632	126
0	5938	45645	125
0	5943	45652	124
0	5950	45696	123
0	5954	45696	124
0	5964	45760	125
0	5965	45770	124
0	5977	45824	125
0	5978	45872	124
0	5984	45888	125
0	5985	45910	124
0	5995	45952	125
0	5996	45985	124
0	6002	46016	125
0	6003	46030	124
0	6008	46052	123
0	6013	46055	122
0	6021	46080	123
0	6022	46099	122
0	6029	46116	121
0	6037	46144	122
0	6042	46195	121
0	6050	46208	122
0	6051	46248	121
0	6056	46249	120
0	6066	46272	121
0	6067	46331	120
0	6072	46336	119
0	6076	46336	120
0	6082	46400	121
0	6086	46464	122
0	6091	46528	123
0	6093	46592	124
0	6095	46656	125
0	6101	46720	126
0	6102	46743	125
0	6108	46784	126
0	6111	46827	125
0	6116	46838	124
0	6124	46848	125
0	6130	46912	126
0	6132	46976	127
0	6133	47019	126
0	6139	47040	127
0	6143	47104	128
0	6144	47113	127
0	6150	47168	128
0	6154	47232	129
0	6155	47267	128
0	6161	47296	129
0	6162	47319	128
0	6168	47360	129
0	6172	47424	130
0	6174	47488	131
0	6178	47552	132
0	6179	47554	131
0	6184	47568	130
0	6191	47592	129
0	6197	47616	130
0	6200	47636	129
0	6208	47680	130
0	6209	47690	129
0	6217	47744	130
0	6220	47797	129
0	6226	47808	130
0	6227	47817	129
0	6232	47862	128
0	6239	47865	127
0	6247	47872	128
0	6253	47936	129
0	6261	48000	130
0	6263	48000	131
0	6265	48001	130
0	6271	48064	131
0	6274	48090	130
0	6280	48128	131
0	6294	48183	130
0	6302	48192	131
0	6304	48256	132
0	6305	48268	131
0	6311	48320	132
0	6313	48384	133
0	6319	48448	134
0	6321	48512	135
0	6323	48576	136
0	6324	48593	135
0	6330	48640	136
0	6331	48653	135
0	6338	48678	134
0	6346	48704	133
0	6347	48704	134
0	6352	48741	133
0	6359	48768	132
0	6363	48768	133
0	6366	48793	132
0	6374	48832	133
0	6375	48880	132
0	6382	48895	131
0	6388	48896	132
0	6389	48908	131
0	6397	48960	132
0	6401	49024	133
0	6404	49074	132
0	6410	49088	133
0	6414	49152	134
0	6418	49216	135
0	6419	49229	134
0	6425	49280	135
0	6427	49344	136
0	6428	49357	135
0	6434	49408	136
0	6439	49450	135
0	6445	49472	136
0	6446	49473	135
0	6457	49536	136
0	6458	49537	135
0	6464	49600	136
0	6465	49607	135
0	6470	49609	134
0	6474	49634	133
0	6475	49634	132
0	6486	49664	133
0	6491	49696	132
0	6502	49728	133
0	6503	49754	132
0	6507	49755	131
0	6514	49792	132
0	6519	49856	133
0	6520	49869	132
0	6530	49898	131
0	6535	49920	132
0	6537	49984	133
0	6545	50048	134
0	6548	50099	133
0	6556	50112	134
0	6560	50176	135
0	6562	50240	136
0	6563	50277	135
0	6573	50304	136
0	6574	50327	135
0	6582	50368	136
0	6583	50373	135
0	6588	50379	134
0	6593	50416	133
0	6599	50432	134
0	6602	50485	133
0	6607	50493	132
0	6612	50496	133
0	6613	50511	132
0	6617	50522	131
0	6621	50535	130
0	6626	50560	131
0	6627	50592	130
0	6632	50624	131
0	6640	50688	132
0	6642	50752	133
0	6643	50794	132
0	6647	50810	131
0	6652	50816	132
0	6660	50880	133
0	6664	50906	132
0	6671	50934	131
0	6675	50935	130
0	6680	50944	131
0	6681	50983	130
0	6693	51008	131
0	6696	51044	130
0	6701	51072	131
0	6702	51092	130
0	6707	51136	131
0	6715	51200	132
0	6723	51264	133
0	6724	51270	132
0	6728	51273	131
0	6732	51290	130
0	6737	51328	131
0	6738	51352	130
0	6749	51392	131
0	6757	51456	132
0	6758	51469	131
0	6762	51490	130
0	6766	51503	129
0	6778	51520	130
0	6783	51584	131
0	6790	51606	130
0	6798	51648	131
0	6801	51677	130
0	6806	51712	131
0	6810	51775	130
0	6815	51776	131
0	6816	51788	130
0	6824	51840	131
0	6835	51904	132
0	6836	51944	131
0	6842	51968	132
0	6846	52032	133
0	6848	52096	134
0	6850	52160	135
0	6851	52164	134
0	6859	52224	135
0	6860	52257	134
0	6866	52288	135
0	6868	52352	136
0	6871	52398	135
0	6877	52416	136
0	6881	52480	137
0	6882	52494	136
0	6893	52544	137
0	6894	52558	136
0	6899	52590	135
0	6904	52605	134
0	6910	52608	135
0	6911	52632	134
0	6920	52672	135
0	6923	52700	134
0	6928	52736	135
0	6929	52795	134
0	6934	52800	135
0	6938	52822	134
0	6945	52859	133
0	6950	52864	134
0	6957	52893	133
0	6965	52928	134
0	6970	52992	135
0	6973	52996	134
0	6983	53056	135
0	6984	53113	134
0	6990	53120	135
0	6991	53171	134
0	6997	53184	135
0	6998	53191	134
0	7005	53214	133
0	7013	53248	134
0	7018	53299	133
0	7023	53307	132
0	7029	53312	133
0	7030	53341	132
0	7034	53358	131
0	7038	53361	130
0	7043	53376	131
0	7047	53417	130
0	7051	53419	129
0	7056	53440	130
0	7061	53504	131
0	7062	53529	130
0	7073	53568	131
0	7081	53632	132
0	7084	53655	131
0	7089	53667	130
0	7097	53696	131
0	7105	53760	132
0	7106	53786	131
0	7116	53824	132
0	7117	53838	131
0	7125	53888	132
0	7126	53918	131
0	7131	53939	130
0	7137	53952	131
0	7138	53996	130
0	7147	54000	131
0	7155	54013	130
0	7160	54016	131
0	7161	54040	130
0	7168	54043	129
0	7172	54062	128
0	7180	54080	129
0	7184	54096	128
0	7198	54143	127
0	7203	54144	128
0	7207	54208	129
0	7213	54221	128
0	7218	54244	127
0	7226	54272	128
0	7231	54335	127
0	7237	54336	128
0	7239	54400	129
0	7243	54464	130
0	7244	54469	129
0	7251	54508	128
0	7257	54528	129
0	7259	54592	130
0	7262	54649	129
0	7268	54656	130
0	7269	54659	129
0	7274	54686	128
0	7279	54720	129
0	7284	54784	130
0	7290	54848	131
0	7293	54887	130
0	7301	54912	131
0	7305	54976	132
0	7306	54983	131
0	7311	55006	130
0	7317	55040	131
0	7321	55104	132
0	7322	55128	131
0	7328	55168	132
0	7332	55232	133
0	7334	55296	134
0	7335	55339	133
0	7340	55354	132
0	7348	55360	133
0	7349	55384	132
0	7354	55420	131
0	7362	55424	132
0	7363	55434	131
0	7367	55434	130
0	7373	55488	131
0	7377	55544	130
0	7382	55552	131
0	7383	55566	130
0	7388	55616	131
0	7393	55665	130
0	7398	55680	131
0	7405	55712	130
0	7412	55744	131
0	7416	55788	130
0	7420	55801	129
0	7425	55808	130
0	7432	55867	129
0	7437	55872	130
0	7441	55913	129
0	7445	55929	128
0	7453	55936	129
0	7454	55950	128
0	7459	56000	129
0	7463	56023	128
0	7474	56064	129
0	7482	56128	130
0	7487	56161	129
0	7495	56192	130
0	7497	56256	131
0	7501	56320	132
0	7503	56384	133
0	7505	56448	134
0	7506	56474	133
0	7513	56496	132
0	7519	56512	133
0	7520	56519	132
0	7530	56576	133
0	7532	56640	134
0	7534	56704	135
0	7537	56724	134
0	7543	56768	135
0	7545	56832	136
0	7546	56838	135
0	7552	56896	136
0	7554	56960	137
0	7555	56989	136
0	7567	57024	137
0	7575	57048	136
0	7583	57088	137
0	7585	57152	138
0	7587	57216	139
0	7588	57244	138
0	7594	57280	139
0	7600	57344	140
0	7601	57356	139
0	7609	57408	140
0	7611	57472	141
0	7612	57474	140
0	7617	57481	139
0	7627	57536	140
0	7628	57553	139
0	7635	57576	138
0	7640	57590	137
0	7646	57600	138
0	7650	57664	139
0	7651	57675	138
0	7656	57680	137
0	7661	57711	136
0	7668	57726	135
0	7674	57728	136
0	7677	57763	135
0	7682	57788	134
0	7687	57792	135
0	7692	57856	136
0	7693	57858	135
0	7697	57905	134
0	7702	57920	135
0	7703	57921	134
0	7707	57945	133
0	7715	57984	134
0	7716	57989	133
0	7720	58001	132
0	7724	58012	131
0	7728	58014	130
0	7733	58048	131
0	7738	58112	132
0	7745	58172	131
0	7750	58176	132
0	7758	58240	133
0	7765	58273	132
0	7770	58304	133
0	7772	58368	134
0	7773	58395	133
0	7781	58432	134
0	7785	58454	133
0	7793	58496	134
0	7805	58560	135
0	7808	58569	134