version 3
run General-0-20240510-19:40:08-20540
attr configname General
attr datetime 20240510-19:40:08
attr datetimef 20240510-194008
attr experiment General
attr inifile omnetpp.ini
attr iterationvars ""
attr iterationvarsd ""
attr iterationvarsf ""
attr measurement ""
attr network AirportControl
attr processid 20540
attr repetition 0
attr replication #0
attr resultdir results
attr runnumber 0
attr seedset 0
config network AirportControl
config simtime-resolution s
config sim-time-limit 1440min
config **.PrioT_PCT.jobType 0
config **.PrioT_PCF.jobType 1
config **.PrioF_PCT.jobType 0
config **.PrioF_PCF.jobType 1
config **.PrioT_PCT.interArrivalTime exponential(3min)
config **.PrioT_PCF.interArrivalTime exponential(3min)
config **.PrioF_PCT.interArrivalTime exponential(2min)
config **.PrioF_PCF.interArrivalTime exponential(1min)
config **.PrioT_Server.serviceTime exponential(45s)
config **.PrioF_Server3.serviceTime exponential(1min)
config **.PrioF_Server2.serviceTime exponential(1min)
config **.PrioF_Server1.serviceTime exponential(1min)
config **.PrioF_Server0.serviceTime exponential(1min)
config **.NoPC_Server0.serviceTime exponential(3min)
config **.NoPC_Server3.serviceTime exponential(3min)
config **.NoPC_Server2.serviceTime exponential(3min)
config **.NoPC_Server1.serviceTime exponential(3min)
config **.PC_Server0.serviceTime exponential(1min)
config **.PC_Server1.serviceTime exponential(1min)
config **.sink.keepJobs true

vector 0 AirportControl.PrioF_PQ queueLength:vector ETV
attr interpolationmode sample-hold
attr recordingmode vector
attr title "queue length"
vector 1 AirportControl.PrioT_PQ queueLength:vector ETV
attr interpolationmode sample-hold
attr recordingmode vector
attr title "queue length"
vector 2 AirportControl.NoPC_PQ queueLength:vector ETV
attr interpolationmode sample-hold
attr recordingmode vector
attr title "queue length"
vector 3 AirportControl.PC_PQ queueLength:vector ETV
attr interpolationmode sample-hold
attr recordingmode vector
attr title "queue length"
vector 4 AirportControl.sink lifeTime:vector ETV
attr interpolationmode none
attr recordingmode vector
attr title "lifetime of arrived jobs"
attr unit s
0	0	0	0
0	47	255	1
0	48	256	0
0	411	1482	1
0	412	1484	0
0	498	1843	1
0	504	1875	0
0	512	1894	1
0	513	1898	0
0	541	1972	1
0	546	1979	0
0	1172	3924	1
0	1183	3951	0
0	1188	3960	1
0	1193	3961	2
0	1194	3965	1
0	1206	3998	0
0	1302	4265	1
0	1306	4278	0
0	1316	4282	1
0	1317	4290	0
0	1508	4706	1
0	1516	4716	0
0	2176	6872	1
0	2184	6905	2
0	2186	6917	3
0	2187	6940	2
0	2193	6943	3
0	2198	6947	2
0	2214	6974	1
0	2218	6992	0
0	2410	7612	1
0	2412	7614	2
0	2417	7628	3
0	2418	7631	2
0	2423	7633	1
0	2427	7634	0
0	2502	7752	1
0	2504	7766	2
0	2507	7771	1
0	2512	7778	0
0	3110	9795	1
0	3112	9796	2
0	3120	9802	1
0	3124	9815	0
0	3567	11294	1
0	3568	11316	0
0	3574	11327	1
0	3575	11328	0
0	3618	11427	1
0	3629	11470	2
0	3633	11507	1
0	3637	11507	2
0	3649	11526	1
0	3657	11532	0
0	3665	11541	1
0	3666	11544	0
0	4190	13358	1
0	4203	13369	0
0	4264	13466	1
0	4265	13493	0
0	4274	13499	1
0	4279	13503	2
0	4281	13505	3
0	4288	13528	2
0	4300	13536	3
0	4301	13538	2
0	4311	13552	1
0	4316	13553	0
0	4327	13562	1
0	4335	13582	0
0	7364	23113	1
0	7365	23117	0
0	7901	25161	1
0	7905	25162	2
0	7906	25164	1
0	7910	25167	0
0	7927	25220	1
0	7936	25267	2
0	7937	25271	1
0	7946	25283	2
0	7947	25286	1
0	7951	25294	0
0	8239	26003	1
0	8240	26009	0
0	8245	26014	1
0	8247	26016	2
0	8249	26018	3
0	8256	26025	4
0	8258	26035	3
0	8270	26052	4
0	8274	26076	3
0	8278	26080	2
0	8285	26082	1
0	8290	26093	2
0	8292	26099	3
0	8297	26105	4
0	8301	26107	3
0	8305	26111	2
0	8318	26122	1
0	8322	26127	0
0	8560	26853	1
0	8561	26858	0
0	8727	27322	1
0	8729	27323	0
0	9802	30752	1
0	9808	30768	0
0	9878	30963	1
0	9880	30964	0
0	10078	31694	1
0	10079	31702	0
0	10104	31735	1
0	10112	31749	0
0	10725	33374	1
0	10727	33403	2
0	10731	33413	1
0	10736	33441	2
0	10737	33448	1
0	10741	33460	0
0	11564	36319	1
0	11568	36334	0
0	11573	36336	1
0	11574	36337	0
0	11627	36459	1
0	11629	36469	2
0	11630	36477	1
0	11636	36484	0
0	11678	36559	1
0	11679	36560	0
0	12054	37774	1
0	12056	37775	2
0	12058	37776	3
0	12059	37777	2
0	12064	37783	1
0	12065	37783	0
0	12073	37795	1
0	12078	37808	2
0	12079	37812	1
0	12094	37851	0
0	12144	37949	1
0	12151	37973	0
0	12162	37980	1
0	12164	37981	0
0	12345	38495	1
0	12346	38499	0
0	12391	38591	1
0	12397	38618	0
0	12587	39119	1
0	12591	39139	0
0	13058	40555	1
0	13061	40576	0
0	13066	40605	1
0	13068	40606	2
0	13069	40607	1
0	13074	40608	2
0	13075	40627	1
0	13080	40637	2
0	13082	40644	3
0	13084	40647	4
0	13085	40648	3
0	13093	40655	2
0	13098	40672	3
0	13102	40687	2
0	13106	40688	1
0	13111	40690	2
0	13112	40711	1
0	13116	40715	0
0	13650	42791	1
0	13651	42797	0
0	13657	42830	1
0	13658	42834	0
0	13762	43149	1
0	13764	43150	0
0	13790	43197	1
0	13795	43211	2
0	13799	43219	1
0	13803	43243	0
0	14053	44045	1
0	14054	44054	0
0	14753	46493	1
0	14754	46498	0
0	15075	47284	1
0	15082	47322	0
0	15353	48161	1
0	15355	48170	2
0	15356	48171	1
0	15360	48177	0
0	15652	49117	1
0	15653	49122	0
0	16183	50837	1
0	16186	50838	2
0	16190	50840	1
0	16197	50854	2
0	16198	50874	1
0	16202	50879	0
0	16326	51165	1
0	16327	51167	0
0	16332	51168	1
0	16335	51191	0
0	16339	51191	1
0	16341	51192	0
0	16422	51390	1
0	16424	51400	2
0	16428	51417	1
0	16433	51418	0
0	16843	52932	1
0	16847	52964	2
0	16848	52976	1
0	16853	53005	2
0	16854	53011	1
0	16860	53012	2
0	16861	53027	1
0	16866	53034	0
0	17013	53563	1
0	17014	53566	0
0	17022	53585	1
0	17026	53594	2
0	17027	53603	1
0	17031	53619	0
0	17049	53661	1
0	17053	53666	0
0	17126	53931	1
0	17128	53940	0
0	17139	53970	1
0	17149	53979	2
0	17156	54006	3
0	17157	54007	2
0	17164	54016	1
0	17169	54020	2
0	17170	54027	1
0	17176	54040	0
0	17181	54056	1
0	17185	54087	0
0	17668	55588	1
0	17672	55606	2
0	17673	55613	1
0	17688	55636	0
0	17796	55900	1
0	17803	55920	0
0	18084	56576	1
0	18088	56585	2
0	18090	56586	3
0	18105	56612	4
0	18106	56623	3
0	18110	56624	2
0	18114	56625	1
0	18129	56645	2
0	18131	56656	3
0	18134	56670	2
0	18144	56693	1
0	18149	56697	0
0	18164	56732	1
0	18168	56754	0
0	18756	58567	1
0	18757	58573	0
0	18868	58904	1
0	18869	58930	0
0	19417	60488	1
0	19418	60489	0
0	19520	60906	1
0	19521	60915	0
0	19529	60919	1
0	19530	60922	0
0	19735	61472	1
0	19736	61493	0
0	20367	63591	1
0	20369	63611	2
0	20370	63617	1
0	20374	63618	0
0	20485	63881	1
0	20488	63889	0
0	20920	65219	1
0	20924	65253	0
0	22292	69012	1
0	22293	69014	0
0	22298	69017	1
0	22303	69026	0
0	22330	69060	1
0	22332	69061	2
0	22336	69067	1
0	22341	69071	2
0	22343	69072	1
0	22349	69075	0
0	22357	69077	1
0	22359	69079	0
0	22373	69098	1
0	22374	69101	0
0	22657	70060	1
0	22658	70062	0
0	23034	71267	1
0	23040	71293	2
0	23048	71317	1
0	23057	71325	0
0	23139	71473	1
0	23140	71475	0
0	24222	74515	1
0	24223	74516	0
0	24256	74579	1
0	24257	74579	2
0	24258	74581	1
0	24262	74584	0
0	24267	74590	1
0	24268	74599	0
0	24792	76351	1
0	24794	76366	2
0	24795	76369	1
0	24803	76387	0
0	25275	78007	1
0	25277	78008	2
0	25279	78011	3
0	25287	78040	2
0	25291	78043	1
0	25297	78045	2
0	25298	78059	1
0	25302	78062	0
0	25307	78075	1
0	25311	78092	0
0	25320	78106	1
0	25321	78106	2
0	25322	78109	1
0	25335	78116	0
0	25851	79694	1
0	25852	79699	0
0	26273	81069	1
0	26276	81072	2
0	26279	81075	3
0	26280	81075	4
0	26281	81077	3
0	26285	81090	2
0	26290	81098	3
0	26291	81107	2
0	26295	81107	1
0	26305	81133	0
0	27628	85157	1
0	27629	85172	0
1	0	0	0
1	11	162	1
1	34	228	0
1	62	285	1
1	71	301	2
1	72	303	1
1	87	349	2
1	108	445	1
1	115	473	0
1	369	1258	1
1	376	1268	0
1	503	1874	1
1	528	1933	2
1	542	1977	1
1	563	1997	2
1	567	2013	1
1	577	2034	0
1	731	2610	1
1	733	2618	2
1	734	2636	1
1	759	2675	2
1	762	2685	1
1	769	2690	0
1	785	2701	1
1	800	2728	0
1	840	2845	1
1	851	2899	2
1	859	2918	3
1	861	2919	2
1	868	2948	1
1	879	2996	2
1	886	3031	1
1	906	3063	0
1	968	3357	1
1	987	3404	2
1	992	3419	3
1	995	3438	4
1	998	3441	3
1	1006	3448	4
1	1007	3450	3
1	1028	3482	4
1	1035	3521	3
1	1040	3540	4
1	1045	3546	5
1	1054	3562	4
1	1066	3578	5
1	1072	3601	4
1	1083	3627	5
1	1092	3651	6
1	1106	3723	5
1	1117	3759	4
1	1124	3770	3
1	1130	3779	2
1	1134	3790	1
1	1145	3832	2
1	1164	3920	1
1	1173	3937	0
1	1179	3940	1
1	1212	4010	2
1	1243	4106	1
1	1250	4113	2
1	1264	4148	3
1	1268	4155	2
1	1279	4217	3
1	1286	4261	2
1	1290	4261	1
1	1307	4278	0
1	1355	4424	1
1	1356	4436	0
1	1427	4562	1
1	1437	4590	0
1	1725	5683	1
1	1732	5704	0
1	1737	5710	1
1	1738	5713	0
1	1773	5802	1
1	1790	5915	2
1	1794	5925	1
1	1805	5941	0
1	1846	6036	1
1	1848	6051	2
1	1857	6103	1
1	1861	6103	2
1	1863	6128	1
1	1879	6153	0
1	1884	6154	1
1	1890	6172	2
1	1905	6211	1
1	1909	6214	0
1	1917	6225	1
1	1919	6229	2
1	1927	6243	1
1	1942	6284	2
1	1945	6295	1
1	1958	6317	0
1	1988	6386	1
1	1991	6387	2
1	2007	6413	1
1	2018	6427	0
1	2049	6552	1
1	2054	6558	0
1	2061	6566	1
1	2062	6574	0
1	2067	6592	1
1	2077	6613	0
1	2100	6688	1
1	2101	6695	0
1	2151	6826	1
1	2153	6832	2
1	2154	6842	1
1	2161	6846	0
1	2308	7261	1
1	2312	7293	0
1	2459	7698	1
1	2477	7731	0
1	2486	7737	1
1	2500	7751	2
1	2517	7783	3
1	2567	7911	2
1	2578	7960	1
1	2588	7985	0
1	2815	8803	1
1	2817	8807	0
1	2822	8818	1
1	2827	8822	2
1	2835	8851	3
1	2839	8870	2
1	2844	8880	3
1	2852	8893	4
1	2864	8926	3
1	2874	8953	2
1	2883	9007	1
1	2897	9028	0
1	2914	9063	1
1	2924	9130	0
1	3102	9784	1
1	3113	9798	0
1	3249	10136	1
1	3253	10183	0
1	3295	10352	1
1	3305	10384	0
1	3532	11239	1
1	3539	11252	0
1	3702	11674	1
1	3703	11679	0
1	3872	12254	1
1	3873	12264	0
1	3884	12271	1
1	3885	12295	0
1	4116	13063	1
1	4126	13095	0
1	4165	13228	1
1	4192	13359	2
1	4194	13361	3
1	4195	13364	2
1	4199	13365	1
1	4225	13379	0
1	4232	13380	1
1	4237	13400	0
1	4254	13426	1
1	4262	13456	2
1	4282	13509	1
1	4292	13531	0
1	4392	13769	1
1	4397	13804	2
1	4398	13816	1
1	4405	13822	2
1	4429	13844	3
1	4430	13849	2
1	4451	13879	3
1	4452	13888	2
1	4457	13899	3
1	4463	13945	2
1	4486	14068	3
1	4490	14098	2
1	4498	14131	1
1	4508	14145	0
1	4611	14556	1
1	4633	14593	2
1	4639	14616	1
1	4647	14634	2
1	4663	14651	1
1	4667	14655	0
1	4702	14745	1
1	4710	14763	0
1	4715	14765	1
1	4722	14788	0
1	4797	15017	1
1	4808	15039	0
1	4939	15315	1
1	4962	15360	2
1	4969	15404	1
1	5001	15440	0
1	5021	15481	1
1	5025	15496	0
1	5151	15914	1
1	5169	15940	2
1	5194	15989	3
1	5198	15993	4
1	5202	16007	3
1	5209	16025	2
1	5213	16042	1
1	5217	16052	0
1	5309	16262	1
1	5311	16270	2
1	5312	16271	1
1	5319	16289	0
1	5472	16808	1
1	5476	16815	0
1	5802	17964	1
1	5820	18063	2
1	5827	18087	1
1	5837	18103	2
1	5841	18121	1
1	5849	18137	0
1	5866	18165	1
1	5867	18170	0
1	5875	18191	1
1	5882	18228	0
1	6040	18708	1
1	6055	18744	0
1	6195	19129	1
1	6196	19134	0
1	6207	19182	1
1	6212	19207	2
1	6213	19248	1
1	6217	19250	0
1	6403	19890	1
1	6405	19895	2
1	6428	19928	1
1	6439	19954	2
1	6445	19992	1
1	6453	20002	0
1	6571	20469	1
1	6582	20482	0
1	6598	20525	1
1	6629	20714	0
1	6685	20848	1
1	6688	20860	0
1	6915	21556	1
1	6931	21614	0
1	6976	21786	1
1	6977	21787	0
1	7214	22738	1
1	7215	22743	0
1	7270	22842	1
1	7277	22867	0
1	7331	23076	1
1	7350	23094	2
1	7375	23127	1
1	7385	23152	0
1	7725	24590	1
1	7742	24661	2
1	7747	24672	3
1	7757	24703	2
1	7784	24781	1
1	7788	24787	0
1	7844	24989	1
1	7853	25037	0
1	7932	25255	1
1	7934	25263	2
1	7941	25279	1
1	7955	25295	0
1	7963	25313	1
1	7965	25315	2
1	7970	25328	3
1	7990	25407	4
1	8017	25477	3
1	8033	25511	2
1	8042	25525	3
1	8047	25531	4
1	8051	25544	3
1	8055	25544	2
1	8064	25558	3
1	8088	25596	2
1	8093	25621	3
1	8105	25671	2
1	8113	25675	1
1	8132	25696	0
1	8141	25707	1
1	8146	25724	2
1	8156	25762	1
1	8170	25768	2
1	8177	25823	1
1	8182	25827	2
1	8190	25867	3
1	8194	25894	2
1	8218	25961	1
1	8251	26023	2
1	8252	26025	1
1	8265	26051	0
1	8417	26396	1
1	8419	26400	2
1	8423	26418	1
1	8428	26429	2
1	8435	26453	1
1	8439	26453	2
1	8453	26500	1
1	8467	26518	2
1	8468	26534	1
1	8479	26560	2
1	8492	26599	3
1	8494	26608	4
1	8507	26651	5
1	8527	26677	6
1	8550	26808	7
1	8558	26828	8
1	8573	26891	9
1	8586	26927	10
1	8587	26931	9
1	8598	26978	10
1	8606	27020	11
1	8610	27028	10
1	8619	27045	11
1	8620	27047	10
1	8631	27062	9
1	8638	27067	8
1	8652	27089	9
1	8672	27174	8
1	8680	27196	9
1	8681	27204	8
1	8685	27206	7
1	8719	27318	6
1	8734	27325	7
1	8739	27333	6
1	8758	27403	5
1	8777	27450	4
1	8790	27492	3
1	8806	27538	2
1	8831	27579	3
1	8850	27606	4
1	8860	27641	3
1	8871	27646	4
1	8872	27668	3
1	8886	27724	4
1	8912	27809	3
1	8931	27860	4
1	8933	27874	5
1	8935	27880	6
1	8957	27926	5
1	8964	27938	4
1	8969	27948	5
1	8976	27965	4
1	8980	27974	3
1	8985	27985	2
1	8995	28016	1
1	8999	28021	0
1	9004	28024	1
1	9006	28030	2
1	9013	28071	1
1	9021	28107	0
1	9029	28136	1
1	9077	28284	0
1	9093	28318	1
1	9100	28354	0
1	9283	28965	1
1	9298	29010	0
1	9334	29173	1
1	9336	29214	2
1	9345	29293	1
1	9350	29303	2
1	9352	29311	3
1	9357	29315	4
1	9361	29324	3
1	9368	29353	2
1	9378	29356	1
1	9389	29376	0
1	9395	29398	1
1	9399	29416	0
1	9419	29433	1
1	9422	29437	0
1	9552	29864	1
1	9558	29870	2
1	9570	29913	1
1	9593	29972	2
1	9607	30026	1
1	9614	30031	0
1	9783	30689	1
1	9787	30723	0
1	9792	30740	1
1	9793	30746	0
1	9804	30759	1
1	9823	30796	2
1	9831	30801	3
1	9854	30884	2
1	9858	30888	1
1	9879	30964	0
1	10130	31762	1
1	10149	31796	0
1	10542	32918	1
1	10546	32922	2
1	10553	32923	3
1	10563	32939	4
1	10564	32950	3
1	10575	32993	4
1	10576	33004	3
1	10581	33017	2
1	10593	33084	1
1	10607	33118	0
1	10613	33119	1
1	10618	33133	0
1	10673	33214	1
1	10702	33293	0
1	10795	33624	1
1	10801	33639	0
1	10809	33670	1
1	10820	33705	0
1	10837	33741	1
1	10838	33742	0
1	10954	34236	1
1	10955	34249	0
1	11325	35558	1
1	11327	35559	2
1	11331	35579	1
1	11335	35587	0
1	11430	35998	1
1	11437	36047	0
1	11507	36197	1
1	11535	36262	0
1	11548	36296	1
1	11550	36304	2
1	11559	36316	1
1	11596	36380	0
1	11655	36511	1
1	11657	36513	2
1	11659	36522	1
1	11669	36535	0
1	11838	37016	1
1	11846	37035	2
1	11848	37069	3
1	11858	37171	2
1	11878	37251	1
1	11879	37251	2
1	11895	37367	1
1	11909	37385	2
1	11910	37405	1
1	11918	37412	0
1	11955	37488	1
1	11956	37506	0
1	12198	38095	1
1	12255	38234	2
1	12262	38254	3
1	12263	38269	2
1	12267	38273	1
1	12283	38282	2
1	12292	38303	3
1	12303	38331	2
1	12310	38397	1
1	12314	38404	0
1	12472	38796	1
1	12495	38861	0
1	12503	38873	1
1	12520	38951	0
1	12582	39093	1
1	12611	39190	2
1	12612	39194	1
1	12619	39221	0
1	12706	39438	1
1	12711	39443	2
1	12715	39453	1
1	12732	39477	0
1	12740	39502	1
1	12745	39522	2
1	12749	39530	1
1	12753	39535	0
1	12865	39980	1
1	12880	40013	0
1	12894	40022	1
1	12895	40037	0
1	12912	40071	1
1	12932	40138	2
1	12943	40175	1
1	12950	40184	0
1	12957	40207	1
1	12964	40264	0
1	13251	41175	1
1	13262	41214	0
1	13353	41505	1
1	13360	41587	0
1	13487	42123	1
1	13493	42131	0
1	13728	43044	1
1	13729	43092	0
1	14188	44644	1
1	14217	44699	2
1	14232	44728	1
1	14248	44787	0
1	14421	45424	1
1	14422	45433	0
1	14460	45584	1
1	14476	45627	0
1	14602	46046	1
1	14609	46064	2
1	14610	46069	1
1	14615	46070	0
1	14742	46480	1
1	14777	46547	0
1	14784	46552	1
1	14812	46666	2
1	14814	46680	3
1	14816	46684	4
1	14821	46689	5
1	14826	46694	6
1	14848	46720	5
1	14852	46721	4
1	14860	46734	5
1	14864	46749	4
1	14893	46849	5
1	14898	46859	6
1	14899	46860	5
1	14918	46901	4
1	14932	46938	5
1	14936	46974	4
1	14952	46993	3
1	14957	47012	4
1	14958	47013	3
1	14968	47022	2
1	14979	47050	3
1	14983	47066	2
1	15013	47112	1
1	15025	47125	0
1	15215	47728	1
1	15216	47738	0
1	15258	47859	1
1	15274	47930	0
1	15295	47977	1
1	15311	48046	0
1	15468	48473	1
1	15473	48513	2
1	15483	48562	1
1	15491	48572	2
1	15500	48605	3
1	15509	48635	2
1	15516	48648	1
1	15524	48700	0
1	15729	49385	1
1	15731	49398	2
1	15759	49509	1
1	15774	49545	0
1	15836	49713	1
1	15841	49729	2
1	15848	49739	1
1	15852	49745	0
1	15920	49925	1
1	15924	49937	0
1	15993	50245	1
1	16000	50269	0
1	16005	50270	1
1	16018	50325	0
1	16034	50343	1
1	16044	50377	2
1	16063	50460	1
1	16073	50475	0
1	16113	50593	1
1	16120	50610	0
1	16128	50639	1
1	16129	50649	0
1	16146	50709	1
1	16148	50712	0
1	16170	50812	1
1	16181	50834	2
1	16185	50838	1
1	16195	50843	2
1	16241	50968	3
1	16262	51021	2
1	16307	51097	3
1	16308	51098	2
1	16315	51105	1
1	16346	51194	0
1	16361	51212	1
1	16366	51227	2
1	16404	51352	1
1	16411	51356	0
1	16653	52280	1
1	16657	52295	0
1	16666	52304	1
1	16682	52377	2
1	16705	52491	3
1	16706	52499	2
1	16711	52503	1
1	16735	52566	0
1	16779	52757	1
1	16780	52776	0
1	17025	53594	1
1	17037	53633	2
1	17038	53636	1
1	17083	53749	0
1	17125	53931	1
1	17140	53975	0
1	17241	54192	1
1	17257	54220	0
1	17343	54502	1
1	17354	54570	0
1	17394	54764	1
1	17399	54785	0
1	17407	54808	1
1	17412	54828	2
1	17439	54932	1
1	17457	54952	2
1	17461	54957	3
1	17470	54971	2
1	17486	55018	3
1	17494	55043	4
1	17495	55049	3
1	17500	55072	4
1	17511	55093	5
1	17521	55164	4
1	17527	55175	5
1	17528	55177	4
1	17532	55189	3
1	17545	55206	2
1	17549	55232	1
1	17563	55280	0
1	17583	55308	1
1	17588	55325	2
1	17596	55395	3
1	17619	55486	2
1	17659	55579	1
1	17680	55628	0
1	17764	55832	1
1	17766	55839	2
1	17768	55849	3
1	17780	55867	4
1	17787	55896	3
1	17791	55896	2
1	17798	55911	3
1	17799	55916	2
1	17820	55961	1
1	17827	55967	2
1	17858	56038	1
1	17862	56039	0
1	17948	56238	1
1	17949	56244	0
1	17969	56279	1
1	17979	56320	0
1	18086	56577	1
1	18091	56590	0
1	18104	56612	1
1	18118	56632	0
1	18472	57818	1
1	18498	57859	0
1	18506	57879	1
1	18508	57887	2
1	18509	57890	1
1	18520	57902	0
1	18545	57950	1
1	18546	57951	0
1	18554	57978	1
1	18564	58021	0
1	18636	58254	1
1	18650	58272	0
1	18903	59089	1
1	18916	59121	0
1	18990	59319	1
1	18994	59325	0
1	19002	59356	1
1	19032	59471	2
1	19068	59577	1
1	19079	59583	2
1	19093	59611	3
1	19144	59741	4
1	19147	59749	5
1	19155	59784	4
1	19165	59829	3
1	19170	59849	4
1	19177	59870	3
1	19188	59892	2
1	19199	59910	3
1	19200	59940	2
1	19204	59941	1
1	19217	59966	0
1	19518	60904	1
1	19547	60949	2
1	19552	60966	3
1	19553	60970	2
1	19564	61000	1
1	19569	61003	2
1	19574	61012	3
1	19576	61017	4
1	19580	61053	3
1	19597	61116	4
1	19606	61183	3
1	19623	61221	4
1	19635	61263	5
1	19636	61272	4
1	19667	61330	5
1	19668	61332	4
1	19672	61335	3
1	19679	61352	2
1	19688	61363	3
1	19690	61371	4
1	19691	61374	3
1	19706	61412	2
1	19727	61438	1
1	19756	61537	2
1	19761	61542	1
1	19776	61557	0
1	19825	61735	1
1	19826	61744	0
1	19983	62331	1
1	19987	62348	0
1	20169	62862	1
1	20229	63123	2
1	20234	63129	3
1	20246	63226	2
1	20252	63246	1
1	20262	63282	0
1	20270	63312	1
1	20277	63357	0
1	20296	63413	1
1	20297	63436	0
1	20306	63442	1
1	20316	63465	0
1	20341	63522	1
1	20343	63524	2
1	20355	63562	1
1	20383	63637	2
1	20399	63666	1
1	20412	63696	2
1	20413	63699	1
1	20417	63747	0
1	20445	63799	1
1	20446	63805	0
1	20569	64150	1
1	20599	64232	0
1	20676	64383	1
1	20703	64446	0
1	20730	64499	1
1	20735	64509	2
1	20742	64589	1
1	20749	64605	0
1	20761	64635	1
1	20775	64708	2
1	20779	64718	1
1	20825	64858	0
1	20880	65112	1
1	20885	65134	2
1	20886	65135	1
1	20891	65137	0
1	20913	65206	1
1	20923	65226	2
1	20932	65263	3
1	20938	65270	4
1	20981	65425	3
1	20987	65426	4
1	20988	65427	3
1	20993	65435	4
1	21011	65473	3
1	21034	65538	2
1	21040	65596	1
1	21048	65619	2
1	21055	65636	1
1	21059	65644	0
1	21068	65671	1
1	21081	65706	0
1	21353	66414	1
1	21366	66432	2
1	21378	66479	1
1	21383	66492	0
1	21531	66931	1
1	21536	66954	2
1	21563	67028	3
1	21564	67033	2
1	21578	67046	1
1	21588	67098	0
1	21593	67101	1
1	21594	67105	0
1	21629	67225	1
1	21675	67315	0
1	21687	67333	1
1	21694	67380	0
1	21761	67517	1
1	21762	67524	0
1	21914	68034	1
1	21942	68133	2
1	21943	68141	1
1	21956	68155	0
1	21977	68196	1
1	21978	68199	0
1	21986	68224	1
1	21990	68232	0
1	22038	68392	1
1	22047	68434	0
1	22180	68673	1
1	22190	68695	0
1	22199	68732	1
1	22203	68769	0
1	22257	68955	1
1	22258	68965	0
1	22510	69490	1
1	22514	69521	0
1	22613	69945	1
1	22619	69962	0
1	22750	70310	1
1	22752	70327	2
1	22757	70342	1
1	22769	70370	0
1	22853	70695	1
1	22873	70726	0
1	22964	70985	1
1	23001	71150	2
1	23010	71184	1
1	23026	71230	0
1	23036	71272	1
1	23038	71283	2
1	23042	71299	3
1	23043	71308	2
1	23053	71320	1
1	23096	71388	0
1	23159	71496	1
1	23164	71523	0
1	23176	71563	1
1	23177	71565	0
1	23190	71583	1
1	23194	71600	0
1	23206	71614	1
1	23219	71639	0
1	23229	71679	1
1	23233	71701	0
1	23292	71950	1
1	23302	71968	0
1	23315	71973	1
1	23323	71983	2
1	23324	71989	1
1	23356	72074	0
1	23365	72092	1
1	23367	72107	2
1	23387	72166	3
1	23395	72178	4
1	23414	72198	3
1	23428	72250	4
1	23432	72267	5
1	23433	72274	4
1	23453	72319	5
1	23457	72324	4
1	23461	72334	3
1	23474	72379	2
1	23479	72385	1
1	23494	72423	2
1	23501	72435	1
1	23508	72442	0
1	23593	72676	1
1	23599	72699	0
1	23604	72705	1
1	23605	72706	0
1	23613	72721	1
1	23634	72774	0
1	23642	72776	1
1	23647	72788	0
1	23673	72804	1
1	23688	72839	0
1	23829	73328	1
1	23836	73377	0
1	24007	73870	1
1	24009	73872	2
1	24011	73873	3
1	24021	73894	2
1	24025	73894	3
1	24031	73930	4
1	24051	73966	5
1	24057	73969	6
1	24068	74090	5
1	24075	74103	4
1	24089	74196	3
1	24098	74211	2
1	24103	74222	1
1	24107	74235	0
1	24342	74876	1
1	24343	74881	0
1	24374	74996	1
1	24378	75010	0
1	24426	75214	1
1	24427	75221	0
1	24627	75803	1
1	24628	75810	0
1	24877	76695	1
1	24881	76710	0
1	24912	76791	1
1	24913	76813	0
1	24919	76815	1
1	24934	76851	0
1	25533	78702	1
1	25534	78724	0
1	25777	79444	1
1	25786	79480	0
1	25960	80006	1
1	25962	80024	2
1	25971	80050	1
1	25990	80097	0
1	25999	80132	1
1	26032	80215	2
1	26037	80249	1
1	26047	80284	0
1	26399	81335	1
1	26401	81337	2
1	26402	81341	1
1	26412	81381	0
1	26511	81622	1
1	26515	81631	0
1	26542	81698	1
1	26543	81699	0
1	26658	82064	1
1	26659	82073	0
1	26664	82079	1
1	26666	82085	2
1	26676	82146	1
1	26681	82152	0
1	26824	82744	1
1	26825	82745	0
1	26931	83083	1
1	26938	83096	0
1	26939	83096	1
1	26947	83117	2
1	26964	83165	1
1	26973	83171	2
1	26977	83189	1
1	26991	83207	2
1	26992	83214	1
1	27023	83286	0
1	27407	84561	1
1	27414	84569	0
1	27428	84605	1
1	27433	84615	2
1	27450	84675	3
1	27454	84698	2
1	27459	84703	3
1	27470	84715	4
1	27474	84724	5
1	27481	84757	4
1	27493	84791	3
1	27506	84857	2
1	27517	84899	3
1	27519	84901	4
1	27527	84933	3
1	27544	84975	2
1	27569	85035	1
1	27573	85054	0
1	27744	85567	1
1	27746	85579	0
1	27881	85981	1
1	27882	85986	0
1	27939	86130	1
1	27943	86137	0
2	0	0	0
2	79	311	1
2	82	329	2
2	83	347	1
2	88	350	0
2	163	674	1
2	171	689	0
2	367	1255	1
2	383	1273	2
2	386	1302	3
2	400	1399	4
2	404	1446	3
2	415	1484	4
2	416	1500	3
2	419	1504	2
2	426	1511	1
2	434	1526	2
2	437	1535	3
2	442	1565	4
2	446	1571	3
2	455	1584	4
2	463	1665	5
2	464	1689	4
2	481	1798	5
2	489	1832	4
2	516	1898	5
2	519	1901	6
2	522	1907	7
2	545	1977	8
2	553	1980	9
2	556	1989	10
2	561	1990	11
2	566	2009	12
2	570	2013	13
2	580	2034	14
2	588	2050	13
2	593	2071	12
2	598	2076	13
2	601	2093	14
2	607	2115	15
2	608	2123	14
2	625	2170	15
2	626	2173	14
2	631	2179	15
2	634	2193	16
2	647	2278	15
2	650	2279	14
2	655	2297	15
2	656	2300	14
2	664	2324	15
2	667	2328	16
2	672	2343	15
2	677	2378	14
2	698	2536	15
2	699	2546	14
2	708	2562	13
2	726	2606	14
2	737	2636	15
2	738	2640	14
2	743	2652	13
2	748	2656	14
2	755	2671	13
2	765	2685	14
2	776	2693	15
2	781	2701	14
2	792	2714	13
2	799	2716	14
2	803	2728	15
2	806	2742	16
2	811	2753	17
2	812	2761	16
2	817	2772	17
2	820	2773	18
2	821	2784	17
2	824	2806	16
2	834	2833	15
2	842	2855	14
2	871	2948	15
2	874	2993	16
2	875	2994	15
2	880	3023	14
2	889	3031	15
2	903	3050	14
2	909	3063	15
2	915	3101	16
2	923	3153	17
2	936	3172	18
2	939	3192	17
2	944	3242	18
2	958	3276	17
2	969	3358	16
2	972	3360	15
2	977	3388	14
2	980	3389	13
2	1014	3451	14
2	1017	3457	15
2	1021	3468	14
2	1041	3544	13
2	1059	3562	14
2	1062	3578	13
2	1069	3588	14
2	1079	3621	13
2	1088	3636	14
2	1102	3704	15
2	1105	3719	16
2	1127	3770	17
2	1133	3779	18
2	1137	3790	19
2	1138	3792	18
2	1141	3820	17
2	1152	3908	16
2	1160	3916	17
2	1169	3920	18
2	1180	3944	17
2	1186	3951	18
2	1189	3961	17
2	1199	3965	18
2	1200	3974	17
2	1203	3980	16
2	1215	4034	17
2	1218	4047	18
2	1221	4048	19
2	1226	4062	18
2	1239	4092	19
2	1240	4097	18
2	1246	4106	19
2	1256	4124	20
2	1267	4149	21
2	1271	4155	22
2	1272	4179	21
2	1275	4207	20
2	1294	4261	21
2	1297	4262	22
2	1303	4266	21
2	1312	4278	22
2	1323	4296	23
2	1335	4334	24
2	1344	4360	25
2	1351	4394	24
2	1360	4447	23
2	1369	4456	22
2	1376	4461	21
2	1381	4471	20
2	1392	4490	21
2	1413	4516	22
2	1419	4536	23
2	1423	4561	22
2	1436	4576	23
2	1440	4590	24
2	1452	4613	25
2	1460	4627	26
2	1465	4631	27
2	1468	4645	28
2	1472	4656	27
2	1483	4662	28
2	1487	4680	27
2	1495	4688	28
2	1499	4692	27
2	1504	4696	28
2	1510	4707	27
2	1513	4715	26
2	1523	4730	27
2	1526	4736	28
2	1546	4791	29
2	1563	4825	30
2	1571	4929	29
2	1577	4941	28
2	1582	4945	29
2	1588	4964	30
2	1601	5012	31
2	1602	5015	30
2	1610	5040	31
2	1619	5100	30
2	1635	5183	29
2	1645	5226	30
2	1656	5303	29
2	1661	5308	30
2	1664	5319	31
2	1689	5401	32
2	1693	5472	31
2	1706	5549	32
2	1715	5643	31
2	1718	5677	30
2	1726	5687	29
2	1735	5704	30
2	1751	5734	29
2	1766	5788	28
2	1774	5827	27
2	1777	5864	26
2	1782	5881	27
2	1785	5886	28
2	1791	5922	27
2	1797	5925	28
2	1802	5937	27
2	1812	5953	28
2	1842	6009	29
2	1862	6103	30
2	1866	6128	31
2	1867	6132	30
2	1875	6143	31
2	1882	6153	32
2	1895	6177	33
2	1898	6181	34
2	1899	6193	33
2	1902	6206	32
2	1908	6211	33
2	1912	6214	34
2	1913	6218	33
2	1930	6243	34
2	1938	6283	33
2	1948	6295	34
2	1957	6313	35
2	1971	6337	36
2	1972	6343	35
2	1978	6367	34
2	1981	6383	33
2	2006	6407	34
2	2010	6413	35
2	2027	6437	36
2	2035	6445	35
2	2045	6499	36
2	2053	6558	35
2	2059	6558	36
2	2065	6574	37
2	2073	6600	38
2	2076	6605	39
2	2080	6613	40
2	2081	6653	39
2	2090	6671	38
2	2104	6695	39
2	2109	6705	38
2	2125	6769	37
2	2143	6808	38
2	2157	6842	39
2	2166	6859	38
2	2171	6861	39
2	2177	6894	38
2	2182	6904	39
2	2194	6944	38
2	2197	6947	37
2	2203	6947	38
2	2204	6951	37
2	2207	6952	36
2	2217	6974	37
2	2221	6992	38
2	2222	7001	37
2	2227	7002	38
2	2228	7003	37
2	2233	7007	38
2	2236	7008	39
2	2255	7078	40
2	2259	7105	39
2	2264	7105	40
2	2269	7111	41
2	2279	7187	42
2	2280	7188	41
2	2286	7198	40
2	2294	7209	41
2	2297	7211	42
2	2303	7221	43
2	2309	7289	42
2	2315	7293	43
2	2329	7338	44
2	2333	7341	45
2	2345	7366	46
2	2348	7378	47
2	2355	7416	48
2	2370	7446	49
2	2378	7497	48
2	2389	7537	49
2	2393	7589	48
2	2406	7608	47
2	2413	7624	46
2	2426	7633	47
2	2433	7642	48
2	2437	7651	47
2	2440	7664	46
2	2451	7677	47
2	2473	7724	48
2	2521	7796	47
2	2530	7806	46
2	2537	7826	45
2	2545	7831	46
2	2548	7839	47
2	2559	7879	46
2	2566	7893	47
2	2574	7916	48
2	2581	7960	49
2	2595	7993	50
2	2604	8016	51
2	2607	8038	52
2	2610	8044	53
2	2617	8060	52
2	2629	8077	51
2	2632	8081	50
2	2647	8117	49
2	2657	8125	50
2	2664	8167	51
2	2665	8171	50
2	2668	8172	49
2	2673	8206	50
2	2681	8292	51
2	2684	8378	50
2	2687	8386	49
2	2693	8401	48
2	2701	8409	49
2	2710	8447	50
2	2711	8448	49
2	2716	8466	50
2	2722	8497	51
2	2723	8543	50
2	2728	8547	51
2	2734	8587	52
2	2738	8596	51
2	2756	8653	50
2	2761	8655	51
2	2762	8659	50
2	2777	8702	49
2	2811	8788	50
2	2816	8803	51
2	2833	8833	52
2	2867	8926	53
2	2868	8945	52
2	2873	8950	53
2	2877	8953	54
2	2880	8990	53
2	2886	9007	54
2	2890	9015	53
2	2907	9032	54
2	2910	9042	53
2	2915	9093	52
2	2918	9102	51
2	2929	9131	50
2	2938	9151	49
2	2941	9184	48
2	2948	9225	47
2	2963	9239	48
2	2964	9255	47
2	2977	9282	46
2	2982	9288	47
2	2986	9296	46
2	2989	9306	45
2	3001	9366	44
2	3006	9368	45
2	3021	9421	46
2	3027	9425	47
2	3028	9440	46
2	3074	9614	47
2	3084	9701	46
2	3089	9716	47
2	3123	9802	48
2	3127	9815	49
2	3130	9819	50
2	3134	9836	49
2	3147	9852	50
2	3148	9853	49
2	3149	9853	48
2	3154	9857	47
2	3159	9861	48
2	3178	9883	47
2	3188	9900	48
2	3189	9904	47
2	3192	9923	46
2	3195	9925	45
2	3198	9957	44
2	3204	9981	43
2	3208	9987	42
2	3224	10010	43
2	3227	10030	44
2	3230	10045	45
2	3234	10076	44
2	3237	10078	43
2	3250	10171	42
2	3256	10183	43
2	3257	10213	42
2	3260	10236	41
2	3265	10259	42
2	3268	10275	43
2	3269	10276	42
2	3281	10287	43
2	3287	10330	44
2	3296	10364	43
2	3308	10384	44
2	3313	10401	43
2	3316	10421	42
2	3327	10448	41
2	3330	10464	40
2	3346	10499	41
2	3360	10577	40
2	3382	10627	41
2	3388	10647	42
2	3395	10656	43
2	3408	10737	42
2	3417	10740	43
2	3425	10758	44
2	3428	10797	45
2	3431	10826	44
2	3434	10840	43
2	3437	10846	42
2	3440	10877	41
2	3443	10890	40
2	3451	10964	41
2	3460	11010	42
2	3461	11033	41
2	3464	11037	40
2	3471	11061	39
2	3476	11075	38
2	3487	11079	39
2	3490	11087	40
2	3506	11114	41
2	3511	11127	42
2	3514	11137	43
2	3517	11138	44
2	3528	11232	43
2	3542	11252	44
2	3545	11252	45
2	3548	11266	44
2	3553	11267	45
2	3554	11281	44
2	3560	11290	43
2	3580	11347	42
2	3585	11349	43
2	3591	11352	44
2	3598	11376	43
2	3603	11377	44
2	3606	11387	43
2	3613	11397	44
2	3619	11436	43