version 3
run General-1-20240513-00:14:26-20028
attr configname General
attr datetime 20240513-00:14:26
attr datetimef 20240513-001426
attr experiment General
attr inifile omnetpp.ini
attr iterationvars ""
attr iterationvarsd ""
attr iterationvarsf ""
attr measurement ""
attr network AirportControl
attr processid 20028
attr repetition 1
attr replication #1
attr resultdir results
attr runnumber 1
attr seedset 1
config network AirportControl
config repeat 10
config simtime-resolution s
config sim-time-limit 1440min
config **.PrioT_PCT.jobType 0
config **.PrioT_PCF.jobType 1
config **.PrioF_PCT.jobType 2
config **.PrioF_PCF.jobType 3
config **.PrioT_PCT.probArrival 0.04
config **.PrioT_PCF.probArrival 0.01
config **.PrioF_PCT.probArrival 0.01
config **.PrioF_PCF.probArrival 0.94
config **.PrioT_PCT.interarrivalRateRush 0.4min
config **.PrioT_PCF.interarrivalRateRush 0.4min
config **.PrioF_PCT.interarrivalRateRush 0.4min
config **.PrioF_PCF.interarrivalRateRush 0.4min
config **.PrioF_PCF.interarrivalRateNormal 1min
config **.PrioT_PCT.interarrivalRateNormal 1min
config **.PrioF_PCT.interarrivalRateNormal 1min
config **.PrioT_PCF.interarrivalRateNormal 1min
config **.PrioF_PCF.numberOfPeaks 4
config **.PrioF_PCT.numberOfPeaks 4
config **.PrioT_PCF.numberOfPeaks 4
config **.PrioT_PCT.numberOfPeaks 4
config **.PrioF_PCF.durationOfPeaks 150min
config **.PrioF_PCT.durationOfPeaks 150min
config **.PrioT_PCF.durationOfPeaks 150min
config **.PrioT_PCT.durationOfPeaks 150min
config **.PrioT_Server.serviceTime exponential(3min)
config **.PrioF_Server3.serviceTime exponential(5min)
config **.PrioF_Server2.serviceTime exponential(5min)
config **.PrioF_Server1.serviceTime exponential(5min)
config **.PrioF_Server0.serviceTime exponential(5min)
config **.NoPC_Server0.serviceTime exponential(3min)
config **.NoPC_Server3.serviceTime exponential(3min)
config **.NoPC_Server2.serviceTime exponential(3min)
config **.NoPC_Server1.serviceTime exponential(3min)
config **.PC_Server0.serviceTime exponential(1min)
config **.PC_Server1.serviceTime exponential(1min)

vector 0 AirportControl.PrioF_PQ queueLength:vector ETV
attr interpolationmode sample-hold
attr recordingmode vector
attr title "queue length"
vector 1 AirportControl.PrioT_PQ queueLength:vector ETV
attr interpolationmode sample-hold
attr recordingmode vector
attr title "queue length"
vector 2 AirportControl.NoPC_PQ queueLength:vector ETV
attr interpolationmode sample-hold
attr recordingmode vector
attr title "queue length"
vector 3 AirportControl.PC_PQ queueLength:vector ETV
attr interpolationmode sample-hold
attr recordingmode vector
attr title "queue length"
vector 4 AirportControl.sink lifeTime:vector ETV
attr interpolationmode none
attr recordingmode vector
attr title "lifetime of arrived jobs"
attr unit s
0	0	0	0
0	32	192	1
0	34	256	2
0	36	320	3
0	37	382	2
0	43	384	3
0	44	430	2
0	52	448	3
0	53	459	2
0	59	512	3
0	61	521	2
0	70	576	3
0	72	640	4
0	73	648	3
0	79	704	4
0	83	768	5
0	84	800	4
0	90	832	5
0	91	873	4
0	97	896	5
0	101	960	6
0	103	1024	7
0	104	1032	6
0	109	1036	5
0	115	1088	6
0	116	1105	5
0	128	1152	6
0	134	1216	7
0	136	1280	8
0	138	1344	9
0	139	1379	8
0	144	1387	7
0	150	1408	8
0	152	1472	9
0	159	1536	10
0	165	1600	11
0	169	1664	12
0	170	1720	11
0	176	1728	12
0	177	1736	11
0	182	1762	10
0	187	1781	9
0	193	1792	10
0	196	1828	9
0	206	1856	10
0	208	1920	11
0	209	1965	10
0	217	1984	11
0	221	2048	12
0	222	2078	11
0	228	2112	12
0	232	2176	13
0	235	2213	12
0	243	2240	13
0	244	2265	12
0	250	2304	13
0	252	2368	14
0	253	2432	13
0	257	2432	14
0	260	2459	13
0	265	2471	12
0	270	2496	13
0	274	2527	12
0	282	2560	13
0	288	2624	14
0	290	2688	15
0	296	2752	16
0	298	2816	17
0	299	2840	16
0	304	2863	15
0	309	2871	14
0	315	2880	15
0	316	2940	14
0	322	2944	15
0	333	3008	16
0	334	3027	15
0	342	3072	16
0	345	3130	15
0	351	3136	16
0	352	3158	15
0	357	3169	14
0	364	3176	13
0	369	3186	12
0	375	3200	13
0	381	3264	14
0	385	3328	15
0	386	3329	14
0	394	3392	15
0	400	3456	16
0	401	3479	15
0	409	3520	16
0	410	3578	15
0	416	3584	16
0	419	3617	15
0	429	3648	16
0	430	3650	15
0	436	3712	16
0	437	3743	15
0	447	3776	16
0	448	3821	15
0	453	3828	14
0	459	3840	15
0	463	3904	16
0	464	3925	15
0	469	3930	14
0	474	3936	13
0	481	3967	12
0	486	3968	13
0	491	4032	14
0	492	4038	13
0	496	4045	12
0	504	4096	13
0	505	4131	12
0	509	4152	11
0	514	4160	12
0	515	4168	11
0	523	4224	12
0	527	4277	11
0	532	4288	12
0	533	4325	11
0	541	4352	12
0	543	4394	11
0	553	4416	12
0	554	4418	11
0	564	4450	10
0	571	4461	9
0	576	4480	10
0	587	4544	11
0	595	4608	12
0	600	4665	11
0	606	4672	12
0	614	4736	13
0	615	4755	12
0	623	4800	13
0	625	4864	14
0	626	4895	13
0	632	4928	14
0	634	4992	15
0	636	5056	16
0	637	5082	15
0	644	5112	14
0	650	5120	15
0	654	5184	16
0	656	5248	17
0	657	5266	16
0	663	5312	17
0	664	5348	16
0	670	5376	17
0	671	5377	16
0	676	5392	15
0	683	5422	14
0	688	5440	15
0	697	5504	16
0	699	5568	17
0	700	5574	16
0	707	5628	15
0	713	5632	16
0	715	5696	17
0	719	5760	18
0	725	5824	19
0	726	5886	18
0	732	5888	19
0	733	5950	18
0	739	5952	19
0	740	5967	18
0	751	6000	19
0	754	6014	18
0	760	6016	19
0	764	6080	20
0	768	6144	21
0	772	6208	22
0	774	6272	23
0	776	6336	24
0	777	6355	23
0	782	6366	22
0	787	6367	21
0	798	6400	22
0	799	6415	21
0	809	6464	22
0	814	6497	21
0	824	6528	22
0	826	6592	23
0	832	6656	24
0	833	6668	23
0	839	6720	24
0	841	6784	25
0	846	6799	24
0	853	6834	23
0	859	6848	24
0	860	6871	23
0	868	6912	24
0	870	6976	25
0	871	6995	24
0	877	7040	25
0	880	7091	24
0	886	7104	25
0	890	7168	26
0	891	7174	25
0	897	7232	26
0	901	7296	27
0	902	7331	26
0	907	7350	25
0	913	7360	26
0	914	7412	25
0	920	7424	26
0	924	7488	27
0	928	7501	26
0	940	7552	27
0	948	7616	28
0	949	7668	27
0	957	7680	28
0	959	7744	29
0	960	7767	28
0	967	7787	27
0	973	7808	28
0	977	7872	29
0	979	7936	30
0	980	7945	29
0	985	7992	28
0	991	8000	29
0	994	8051	28
0	1002	8064	29
0	1003	8078	28
0	1010	8083	27
0	1016	8128	28
0	1022	8192	29
0	1024	8256	30
0	1026	8320	31
0	1027	8344	30
0	1033	8384	31
0	1036	8438	30
0	1042	8448	31
0	1048	8512	32
0	1050	8576	33
0	1052	8640	34
0	1053	8696	33
0	1059	8704	34
0	1060	8710	33
0	1065	8753	32
0	1070	8754	31
0	1076	8768	32
0	1082	8832	33
0	1085	8878	32
0	1091	8896	33
0	1092	8898	32
0	1102	8960	33
0	1107	9024	34
0	1111	9088	35
0	1112	9112	34
0	1118	9152	35
0	1119	9182	34
0	1124	9197	33
0	1130	9216	34
0	1140	9280	35
0	1141	9321	34
0	1146	9327	33
0	1151	9335	32
0	1156	9344	31
0	1157	9344	32
0	1170	9408	33
0	1173	9416	32
0	1181	9472	33
0	1185	9536	34
0	1186	9558	33
0	1191	9562	32
0	1199	9600	33
0	1203	9664	34
0	1205	9728	35
0	1206	9790	34
0	1212	9792	35
0	1213	9803	34
0	1218	9843	33
0	1228	9856	34
0	1232	9920	35
0	1233	9941	34
0	1239	9984	35
0	1240	10006	34
0	1246	10048	35
0	1252	10112	36
0	1254	10176	37
0	1257	10205	36
0	1262	10215	35
0	1267	10221	34
0	1273	10240	35
0	1279	10304	36
0	1280	10344	35
0	1286	10368	36
0	1287	10424	35
0	1293	10432	36
0	1294	10452	35
0	1300	10496	36
0	1309	10560	37
0	1314	10599	36
0	1320	10624	37
0	1322	10688	38
0	1323	10705	37
0	1329	10752	38
0	1331	10816	39
0	1340	10872	38
0	1346	10880	39
0	1349	10916	38
0	1354	10918	37
0	1359	10935	36
0	1365	10944	37
0	1368	10949	36
0	1375	10957	35
0	1380	10983	34
0	1385	11008	35
0	1386	11017	34
0	1390	11028	33
0	1394	11034	32
0	1398	11054	31
0	1402	11058	30
0	1407	11072	31
0	1408	11100	30
0	1412	11122	29
0	1420	11136	30
0	1422	11200	31
0	1426	11227	30
0	1431	11264	31
0	1432	11274	30
0	1440	11328	31
0	1444	11353	30
0	1448	11357	29
0	1455	11370	28
0	1463	11392	29
0	1464	11407	28
0	1474	11423	27
0	1478	11440	26
0	1482	11455	25
0	1487	11456	26
0	1488	11479	25
0	1496	11520	26
0	1504	11584	27
0	1515	11648	28
0	1520	11712	29
0	1525	11776	30
0	1533	11840	31
0	1534	11884	30
0	1538	11890	29
0	1543	11904	30
0	1545	11968	31
0	1550	12000	32
0	1560	12018	31
0	1569	12032	32
0	1576	12096	33
0	1584	12160	34
0	1585	12206	33
0	1590	12224	34
0	1591	12245	33
0	1602	12288	34
0	1605	12321	33
0	1615	12352	34
0	1619	12416	35
0	1620	12473	34
0	1625	12475	33
0	1631	12480	34
0	1634	12522	33
0	1640	12544	34
0	1641	12581	33
0	1649	12608	34
0	1650	12616	33
0	1658	12672	34
0	1661	12708	33
0	1666	12715	32
0	1671	12729	31
0	1676	12736	32
0	1683	12800	33
0	1684	12854	32
0	1690	12864	33
0	1693	12913	32
0	1698	12925	31
0	1703	12928	32
0	1704	12932	31
0	1711	12946	30
0	1721	12976	29
0	1726	12992	30
0	1732	13027	29
0	1737	13040	28
0	1742	13056	29
0	1746	13064	28
0	1751	13120	29
0	1756	13184	30
0	1758	13248	31
0	1761	13263	30
0	1767	13312	31
0	1768	13332	30
0	1772	13333	29
0	1779	13352	28
0	1783	13355	27
0	1791	13376	28
0	1796	13440	29
0	1804	13504	30
0	1808	13568	31
0	1811	13574	30
0	1821	13632	31
0	1823	13696	32
0	1824	13724	31
0	1830	13760	32
0	1833	13799	31
0	1841	13824	32
0	1842	13840	31
0	1848	13888	32
0	1849	13891	31
0	1854	13923	30
0	1860	13952	31
0	1870	14016	32
0	1871	14043	31
0	1881	14080	32
0	1883	14144	33
0	1884	14190	32
0	1890	14208	33
0	1891	14264	32
0	1897	14272	33
0	1901	14336	34
0	1905	14400	35
0	1906	14412	34
0	1916	14464	35
0	1917	14498	34
0	1925	14528	35
0	1927	14592	36
0	1928	14612	35
0	1934	14656	36
0	1937	14701	35
0	1945	14720	36
0	1946	14776	35
0	1952	14784	36
0	1953	14785	35
0	1961	14848	36
0	1962	14851	35
0	1972	14912	36
0	1973	14936	35
0	1981	14976	36
0	1982	14993	35
0	1998	15034	34
0	2006	15040	35
0	2010	15104	36
0	2012	15168	37
0	2014	15232	38
0	2015	15245	37
0	2020	15252	36
0	2026	15296	37
0	2030	15360	38
0	2032	15424	39
0	2033	15483	38
0	2039	15488	39
0	2040	15529	38
0	2045	15534	37
0	2051	15552	38
0	2056	15592	37
0	2062	15616	38
0	2066	15680	39
0	2067	15713	38
0	2075	15744	39
0	2076	15755	38
0	2082	15808	39
0	2085	15842	38
0	2091	15872	39
0	2097	15936	40
0	2098	15969	39
0	2104	16000	40
0	2105	16010	39
0	2113	16064	40
0	2117	16128	41
0	2118	16139	40
0	2126	16192	41
0	2127	16252	40
0	2134	16256	41
0	2136	16272	40
0	2142	16320	41
0	2144	16384	42
0	2148	16448	43
0	2153	16512	44
0	2155	16576	45
0	2161	16640	46
0	2165	16704	47
0	2167	16768	48
0	2168	16772	47
0	2173	16811	46
0	2178	16814	45
0	2184	16832	46
0	2192	16896	47
0	2193	16915	46
0	2199	16960	47
0	2202	16979	46
0	2207	17009	45
0	2212	17014	44
0	2218	17024	45
0	2224	17088	46
0	2225	17117	45
0	2231	17152	46
0	2235	17216	47
0	2236	17253	46
0	2242	17280	47
0	2243	17284	46
0	2248	17288	45
0	2252	17292	44
0	2260	17344	45
0	2261	17398	44
0	2266	17408	45
0	2271	17472	46
0	2280	17536	47
0	2284	17600	48
0	2287	17634	47
0	2293	17664	48
0	2295	17728	49
0	2296	17747	48
0	2304	17792	49
0	2307	17798	48
0	2314	17815	47
0	2322	17856	48
0	2324	17920	49
0	2325	17958	48
0	2330	17979	47
0	2336	17984	48
0	2341	18000	49
0	2349	18031	48
0	2355	18048	49
0	2358	18099	48
0	2364	18112	49
0	2370	18176	50
0	2371	18187	49
0	2376	18213	48
0	2382	18240	49
0	2383	18265	48
0	2387	18299	47
0	2392	18304	48
0	2393	18336	47
0	2405	18368	48
0	2409	18432	49
0	2410	18494	48
0	2415	18496	49
0	2416	18498	48
0	2426	18555	47
0	2431	18560	48
0	2432	18595	47
0	2436	18618	46
0	2441	18624	47
0	2449	18688	48
0	2453	18732	47
0	2461	18752	48
0	2466	18816	49
0	2467	18859	48
0	2471	18860	47
0	2476	18880	48
0	2481	18944	49
0	2485	18971	48
0	2489	18977	47
0	2497	19008	48
0	2502	19072	49
0	2503	19091	48
0	2511	19136	49
0	2512	19157	48
0	2519	19160	47
0	2526	19164	46
0	2533	19173	45
0	2538	19200	46
0	2539	19204	45
0	2543	19206	44
0	2556	19261	43
0	2561	19264	44
0	2563	19328	45
0	2572	19373	44
0	2579	19388	43
0	2585	19392	44
0	2588	19420	43
0	2600	19456	44
0	2604	19514	43
0	2610	19520	44
0	2611	19540	43
0	2617	19584	44
0	2618	19607	43
0	2624	19648	44
0	2628	19712	45
0	2632	19776	46
0	2633	19826	45
0	2638	19831	44
0	2644	19840	45
0	2653	19899	44
0	2659	19904	45
0	2664	19937	44
0	2670	19968	45
0	2673	19997	44
0	2681	20032	45
0	2683	20096	46
0	2684	20124	45
0	2692	20160	46
0	2696	20224	47
0	2697	20252	46
0	2705	20288	47
0	2706	20333	46
0	2714	20352	47
0	2718	20416	48
0	2719	20423	47
0	2726	20472	46
0	2732	20480	47
0	2733	20520	46
0	2739	20544	47
0	2741	20608	48
0	2742	20646	47
0	2747	20660	46
0	2752	20667	45
0	2757	20672	46
0	2758	20675	45
0	2762	20692	44
0	2773	20736	45
0	2777	20757	44
0	2784	20775	43
0	2789	20800	44
0	2790	20802	43
0	2797	20825	42
0	2802	20864	43
0	2810	20928	44
0	2814	20992	45
0	2827	21056	46
0	2831	21120	47
0	2834	21149	46
0	2840	21184	47
0	2842	21248	48
0	2843	21258	47
0	2849	21312	48
0	2850	21338	47
0	2858	21376	48
0	2859	21385	47
0	2864	21399	46
0	2871	21414	45
0	2877	21440	46
0	2879	21504	47
0	2880	21511	46
0	2888	21568	47
0	2892	21632	48
0	2893	21654	47
0	2903	21696	48
0	2908	21743	47
0	2914	21760	48
0	2915	21778	47
0	2921	21824	48
0	2922	21842	47
0	2930	21888	48
0	2933	21911	47
0	2943	21952	48
0	2945	22016	49
0	2946	22050	48
0	2952	22080	49
0	2953	22120	48
0	2959	22144	49
0	2960	22158	48
0	2969	22206	47
0	2975	22208	48
0	2976	22232	47
0	2984	22272	48
0	2985	22302	47
0	2993	22336	48
0	2994	22367	47
0	3001	22382	46
0	3007	22399	45
0	3014	22400	46
0	3018	22464	47
0	3022	22520	46
0	3028	22528	47
0	3033	22587	46
0	3039	22592	47
0	3040	22594	46
0	3046	22600	45
0	3057	22656	46
0	3063	22720	47
0	3064	22730	46
0	3074	22784	47
0	3075	22814	46
0	3080	22823	45
0	3088	22848	46
0	3089	22889	45
0	3095	22912	46
0	3096	22913	45
0	3101	22920	44
0	3106	22976	45
0	3110	23038	44
0	3115	23040	45
0	3116	23043	44
0	3120	23068	43
0	3128	23104	44
0	3132	23148	43
0	3139	23148	42
0	3144	23168	43
0	3146	23232	44
0	3156	23296	45
0	3157	23351	44
0	3163	23360	45
0	3165	23424	46
0	3166	23442	45
0	3174	23488	46
0	3182	23552	47
0	3184	23616	48
0	3185	23627	47
0	3192	23657	46
0	3197	23658	45
0	3203	23680	46
0	3205	23744	47
0	3209	23808	48
0	3211	23872	49
0	3212	23876	48
0	3222	23936	49
0	3225	23973	48
0	3235	24000	49
0	3237	24000	50
0	3244	24019	49
0	3249	24023	48
0	3255	24064	49
0	3259	24128	50
0	3260	24132	49
0	3265	24159	48
0	3279	24192	49
0	3282	24236	48
0	3287	24245	47
0	3295	24256	48
0	3299	24320	49
0	3300	24363	48
0	3306	24384	49
0	3312	24448	50
0	3313	24455	49
0	3323	24512	50
0	3326	24540	49
0	3332	24576	50
0	3334	24640	51
0	3338	24704	52
0	3339	24723	51
0	3345	24768	52
0	3346	24830	51
0	3352	24832	52
0	3353	24876	51
0	3359	24896	52
0	3362	24913	51
0	3368	24960	52
0	3374	25024	53
0	3375	25067	52
0	3381	25088	53
0	3382	25147	52
0	3388	25152	53
0	3392	25216	54
0	3394	25280	55
0	3398	25344	56
0	3400	25408	57
0	3401	25451	56
0	3407	25472	57
0	3412	25536	58
0	3413	25571	57
0	3419	25600	58
0	3425	25664	59
0	3431	25728	60
0	3435	25792	61
0	3437	25856	62
0	3438	25894	61
0	3444	25920	62
0	3445	25936	61
0	3450	25938	60
0	3455	25946	59
0	3460	25984	60
0	3461	25998	59
0	3469	26048	60
0	3470	26068	59
0	3481	26112	60
0	3484	26171	59
0	3490	26176	60
0	3492	26240	61
0	3495	26256	60
0	3501	26304	61
0	3502	26308	60
0	3512	26368	61
0	3516	26432	62
0	3520	26496	63
0	3524	26560	64
0	3526	26624	65
0	3527	26662	64
0	3533	26688	65
0	3535	26752	66
0	3538	26816	65
0	3542	26816	66
0	3545	26851	65
0	3550	26879	64
0	3556	26880	65
0	3560	26944	66
0	3561	26981	65
0	3572	27008	66
0	3573	27014	65
0	3578	27026	64
0	3590	27072	65
0	3595	27103	64
0	3602	27111	63
0	3608	27136	64
0	3609	27140	63
0	3618	27158	62
0	3624	27200	63
0	3626	27264	64
0	3629	27294	63
0	3635	27328	64
0	3636	27365	63
0	3641	27371	62
0	3646	27392	63
0	3651	27456	64
0	3652	27477	63
0	3656	27485	62
0	3660	27519	61
0	3665	27520	62
0	3677	27553	61
0	3687	27584	62
0	3689	27648	63
0	3692	27697	62
0	3698	27712	63
0	3700	27776	64
0	3701	27789	63
0	3707	27840	64
0	3708	27846	63
0	3718	27904	64
0	3720	27968	65
0	3723	28004	64
0	3729	28032	65
0	3730	28080	64
0	3736	28096	65
0	3737	28113	64
0	3742	28123	63
0	3751	28160	64
0	3756	28224	65
0	3762	28288	66
0	3764	28352	67
0	3765	28355	66
0	3771	28416	67
0	3775	28480	68
0	3776	28494	67
0	3786	28543	66
0	3792	28544	67
0	3797	28569	66
0	3802	28594	65
0	3812	28608	66
0	3816	28672	67
0	3820	28736	68
0	3821	28754	67
0	3826	28762	66
0	3833	28789	65
0	3839	28800	66
0	3841	28864	67
0	3845	28928	68
0	3846	28965	67
0	3852	28992	68
0	3854	29056	69
0	3857	29063	68
0	3865	29120	69
0	3867	29184	70
0	3869	29248	71
0	3870	29276	70
0	3878	29312	71
0	3879	29323	70
0	3885	29376	71
0	3886	29378	70
0	3893	29402	69
0	3899	29440	70
0	3900	29499	69
0	3908	29504	70
0	3909	29546	69
0	3915	29568	70
0	3916	29592	69
0	3923	29616	68
0	3927	29622	67
0	3932	29632	68
0	3938	29696	69
0	3944	29760	70
0	3949	29794	69
0	3955	29824	70
0	3958	29884	69
0	3964	29888	70
0	3965	29920	69
0	3970	29923	68
0	3975	29928	67
0	3983	29952	68
0	3984	29964	67
0	3991	29978	66
0	3999	30000	67
0	4003	30016	68
0	4007	30079	67
0	4012	30080	68
0	4017	30144	69
0	4018	30159	68
0	4023	30208	69
0	4028	30272	70
0	4032	30336	71
0	4033	30343	70
0	4038	30345	69
0	4042	30370	68
0	4046	30376	67
0	4054	30400	68
0	4056	30464	69
0	4057	30492	68
0	4067	30524	67
0	4072	30528	68
0	4074	30592	69
0	4082	30656	70
0	4090	30720	71
0	4097	30784	72
0	4100	30830	71
0	4108	30848	72
0	4112	30912	73
0	4117	30970	72
0	4123	30976	73
0	4129	31040	74
0	4131	31104	75
0	4133	31168	76
0	4134	31180	75
0	4139	31181	74
0	4144	31202	73
0	4150	31232	74
0	4154	31296	75
0	4156	31360	76
0	4158	31424	77
0	4162	31488	78
0	4167	31552	79
0	4171	31616	80
0	4173	31680	81
0	4175	31744	82
0	4176	31774	81
0	4186	31808	82
0	4190	31872	83
0	4191	31909	82
0	4199	31936	83
0	4200	31956	82
0	4205	31988	81
0	4211	32000	82
0	4212	32007	81
0	4217	32046	80
0	4221	32050	79
0	4226	32064	80
0	4227	32087	79
0	4235	32128	80
0	4237	32192	81
0	4245	32256	82
0	4246	32293	81
0	4250	32299	80
0	4258	32320	81
0	4260	32384	82
0	4261	32391	81
0	4269	32448	82
0	4276	32512	83
0	4280	32576	84
0	4284	32640	85
0	4285	32688	84
0	4291	32704	85
0	4294	32755	84
0	4300	32768	85
0	4301	32774	84
0	4306	32812	83
0	4307	32812	82
0	4316	32832	83
0	4325	32896	84
0	4327	32960	85
0	4332	33024	86
0	4338	33088	87
0	4342	33152	88
0	4348	33216	89
0	4350	33280	90
0	4351	33314	89
0	4357	33344	90
0	4359	33408	91
0	4360	33435	90
0	4365	33467	89
0	4371	33472	90
0	4377	33536	91
0	4378	33547	90
0	4384	33600	91
0	4385	33640	90
0	4391	33664	91
0	4393	33728	92
0	4397	33792	93
0	4398	33827	92
0	4406	33856	93
0	4407	33869	92
0	4415	33920	93
0	4416	33940	92
0	4422	33984	93
0	4424	34048	94
0	4425	34077	93
0	4435	34112	94
0	4437	34176	95
0	4439	34240	96
0	4440	34248	95
0	4448	34304	96
0	4452	34368	97
0	4456	34432	98
0	4457	34463	97
0	4463	34496	98
0	4474	34560	99
0	4475	34594	98
0	4481	34624	99
0	4482	34679	98
0	4488	34688	99
0	4492	34752	100
0	4496	34816	101
0	4500	34880	102
0	4501	34903	101
0	4506	34911	100
0	4514	34944	101
0	4515	34973	100
0	4523	35008	101
0	4525	35072	102
0	4526	35091	101
0	4531	35132	100
0	4537	35136	101
0	4539	35200	102
0	4543	35264	103
0	4544	35302	102
0	4550	35328	103
0	4551	35344	102
0	4560	35377	101
0	4566	35392	102
0	4568	35456	103
0	4574	35520	104
0	4575	35525	103
0	4581	35584	104
0	4584	35628	103
0	4589	35631	102
0	4595	35648	103
0	4596	35654	102
0	4603	35674	101
0	4608	35680	100
0	4613	35712	101
0	4617	35766	100
0	4622	35776	101
0	4624	35840	102
0	4628	35889	101
0	4635	35892	100
0	4640	35904	101
0	4641	35933	100
0	4645	35951	99
0	4653	35968	100
0	4654	35974	99
0	4662	36000	100
0	4668	36031	99
0	4673	36032	100
0	4678	36096	101
0	4684	36160	102
0	4685	36174	101
0	4690	36224	102
0	4691	36252	101
0	4696	36288	102
0	4697	36293	101
0	4701	36320	100
0	4713	36352	101
0	4726	36416	102
0	4730	36425	101
0	4743	36477	100
0	4749	36480	101
0	4757	36544	102
0	4759	36608	103
0	4761	36672	104
0	4762	36705	103
0	4768	36736	104
0	4769	36757	103
0	4774	36766	102
0	4784	36800	103
0	4785	36803	102
0	4792	36848	101
0	4798	36864	102
0	4802	36928	103
0	4805	36977	102
0	4810	36985	101
0	4816	36992	102
0	4817	36995	101
0	4831	37056	102
0	4832	37059	101
0	4837	37063	100
0	4844	37120	99
0	4848	37120	100
0	4853	37178	99
0	4859	37184	100
0	4861	37248	101
0	4862	37265	100
0	4869	37283	99
0	4877	37312	100
0	4878	37322	99
0	4888	37376	100
0	4891	37432	99
0	4897	37440	100
0	4904	37504	101
0	4906	37568	102
0	4907	37593	101
0	4913	37632	102
0	4917	37696	103
0	4921	37760	104
0	4922	37792	103
0	4930	37824	104
0	4932	37888	105
0	4938	37952	106
0	4942	38016	107
0	4943	38026	106
0	4948	38055	105
0	4957	38075	104
0	4963	38080	105
0	4964	38088	104
0	4970	38144	105
0	4974	38208	106
0	4975	38229	105
0	4980	38255	104
0	4986	38272	105
0	4987	38310	104
0	4993	38336	105
0	4997	38400	106
0	5003	38464	107
0	5005	38528	108
0	5006	38551	107
0	5014	38592	108
0	5016	38656	109
0	5018	38720	110
0	5020	38784	111
0	5024	38848	112
0	5026	38912	113
0	5028	38976	114
0	5029	38984	113
0	5034	38989	112
0	5045	39040	113
0	5047	39104	114
0	5051	39168	115
0	5059	39232	116
0	5060	39289	115
0	5066	39296	116
0	5067	39340	115
0	5072	39344	114
0	5078	39360	115
0	5081	39391	114
0	5087	39424	115
0	5090	39475	114
0	5095	39483	113
0	5101	39488	114
0	5102	39506	113
0	5107	39552	114
0	5111	39594	113
0	5119	39616	114
0	5122	39638	113
0	5127	39641	112
0	5134	39673	111
0	5142	39680	112
0	5143	39689	111
0	5151	39744	112
0	5156	39789	111
0	5162	39808	112
0	5163	39864	111
0	5168	39868	110
0	5173	39872	111
0	5180	39936	112
0	5181	39988	111
0	5187	40000	112
0	5195	40064	113
0	5196	40067	112
0	5201	40091	111
0	5209	40128	112
0	5210	40131	111
0	5218	40192	112
0	5219	40243	111
0	5224	40254	110
0	5230	40256	111
0	5232	40320	112
0	5234	40384	113
0	5235	40410	112
0	5243	40448	113
0	5244	40454	112
0	5251	40496	111
0	5258	40503	110
0	5263	40512	111
0	5271	40576	112
0	5272	40590	111
0	5284	40640	112
0	5286	40704	113
0	5287	40723	112
0	5293	40768	113
0	5294	40770	112
0	5300	40832	113
0	5303	40851	112
0	5313	40896	113
0	5318	40937	112
0	5326	40960	113
0	5334	41024	114
0	5336	41088	115
0	5337	41129	114
0	5343	41152	115
0	5345	41216	116
0	5346	41271	115
0	5351	41273	114
0	5357	41280	115
0	5361	41344	116
0	5365	41408	117
0	5368	41439	116
0	5373	41472	115
0	5377	41472	116
0	5381	41536	117
0	5385	41600	118
0	5389	41664	119
0	5390	41676	118
0	5396	41728	119
0	5400	41792	120
0	5401	41830	119
0	5407	41856	120
0	5409	41920	121
0	5411	41984	122
0	5412	41990	121
0	5421	42000	122
0	5424	42004	121
0	5429	42027	120
0	5437	42048	121
0	5444	42112	122
0	5451	42166	121
0	5456	42169	120
0	5461	42172	119
0	5467	42176	120
0	5479	42240	121
0	5480	42249	120
0	5485	42251	119
0	5490	42257	118
0	5495	42304	119
0	5499	42352	118
0	5504	42368	119
0	5510	42424	118
0	5518	42432	119
0	5522	42496	120
0	5527	42518	119
0	5532	42555	118
0	5538	42560	119
0	5539	42590	118
0	5545	42624	119
0	5549	42688	120
0	5550	42697	119
0	5555	42701	118
0	5565	42752	119
0	5567	42816	120
0	5568	42847	119
0	5576	42880	120
0	5579	42922	119
0	5585	42944	120
0	5586	42992	119
0	5591	42994	118
0	5597	43008	119
0	5598	43040	118
0	5605	43059	117
0	5612	43067	116
0	5617	43072	117
0	5618	43093	116
0	5625	43102	115
0	5629	43110	114
0	5637	43136	115
0	5638	43182	114
0	5643	43200	115
0	5644	43207	114
0	5648	43262	113
0	5654	43264	114
0	5670	43328	115
0	5673	43341	114
0	5679	43392	115
0	5680	43426	114
0	5688	43456	115
0	5699	43520	116
0	5705	43584	117
0	5706	43592	116
0	5714	43648	117
0	5715	43668	116
0	5723	43712	117
0	5724	43714	116
0	5734	43776	117
0	5735	43839	116
0	5741	43840	117
0	5746	43853	116
0	5754	43904	117
0	5756	43968	118
0	5758	44032	119
0	5759	44048	118
0	5764	44088	117
0	5770	44096	118
0	5771	44132	117
0	5779	44160	118
0	5780	44184	117
0	5785	44206	116
0	5791	44224	117
0	5794	44252	116
0	5800	44288	117
0	5804	44352	118
0	5809	44375	117
0	5814	44407	116
0	5820	44416	117
0	5821	44423	116
0	5831	44480	117
0	5834	44485	116
0	5839	44486	115
0	5845	44544	116
0	5849	44608	117
0	5851	44672	118
0	5855	44736	119
0	5856	44795	118
0	5861	44799	117
0	5867	44800	118
0	5869	44864	119
0	5870	44866	118
0	5877	44907	117
0	5883	44928	118
0	5887	44992	119
0	5892	45056	120
0	5893	45075	119
0	5901	45120	120
0	5913	45184	121
0	5914	45207	120
0	5919	45212	119
0	5927	45248	120
0	5928	45281	119
0	5936	45312	120
0	5938	45376	121
0	5940	45440	122
0	5943	45447	121
0	5949	45504	122
0	5953	45568	123
0	5954	45602	122
0	5959	45619	121
0	5965	45632	122
0	5967	45696	123
0	5971	45760	124
0	5973	45824	125
0	5974	45865	124
0	5984	45888	125
0	5985	45904	124
0	5992	45929	123
0	5998	45952	124
0	6004	46016	125
0	6005	46036	124
0	6012	46055	123
0	6017	46061	122
0	6023	46080	123
0	6024	46084	122
0	6030	46144	123
0	6031	46160	122
0	6038	46200	121
0	6044	46208	122
0	6047	46243	121
0	6053	46272	122
0	6056	46311	121
0	6061	46312	120
0	6068	46335	119
0	6073	46336	120
0	6074	46364	119
0	6079	46400	120
0	6080	46426	119
0	6088	46464	120
0	6100	46525	119
0	6106	46528	120
0	6109	46559	119
0	6115	46592	120
0	6116	46644	119
0	6124	46656	120
0	6128	46720	121
0	6129	46760	120
0	6139	46784	121
0	6140	46800	120
0	6144	46814	119
0	6149	46848	120
0	6161	46912	121
0	6165	46976	122
0	6166	47019	121
0	6172	47040	122
0	6173	47082	121
0	6179	47104	122
0	6180	47110	121
0	6190	47168	122
0	6192	47232	123
0	6198	47296	124
0	6199	47307	123
0	6206	47356	122
0	6212	47360	123
0	6216	47424	124
0	6220	47488	125
0	6221	47514	124
0	6227	47552	125
0	6228	47572	124
0	6233	47587	123
0	6238	47596	122
0	6244	47616	123
0	6247	47654	122
0	6255	47680	123
0	6257	47744	124
0	6259	47808	125
0	6261	47872	126
0	6267	47936	127
0	6268	47945	126
0	6273	47951	125
0	6278	47972	124
0	6283	47999	123
0	6292	48000	124
0	6294	48000	125
0	6300	48064	126
0	6302	48128	127
0	6303	48154	126
0	6315	48192	127
0	6316	48218	126
0	6320	48224	125
0	6324	48248	124
0	6329	48256	125
0	6334	48320	126
0	6335	48346	125
0	6339	48347	124
0	6343	48376	123
0	6354	48384	124
0	6371	48448	125
0	6373	48512	126
0	6374	48541	125
0	6382	48576	126
0	6384	48640	127
0	6391	48704	128
0	6396	48765	127
0	6402	48768	128
0	6406	48832	129
0	6408	48896	130
0	6410	48960	131
0	6414	49024	132
0	6416	49088	133
0	6418	49152	134
0	6419	49191	133
0	6425	49216	134
0	6426	49220	133
0	6434	49280	134
0	6437	49332	133
0	6443	49344	134
0	6444	49365	133
0	6450	49408	134
0	6452	49472	135
0	6456	49528	134
0	6464	49536	135
0	6474	49600	136
0	6475	49625	135
0	6480	49626	134
0	6485	49650	133
0	6490	49661	132
0	6495	49664	133
0	6500	49728	134
0	6502	49743	133
0	6508	49749	132
0	6515	49782	131
0	6520	49792	132
0	6521	49824	131
0	6534	49856	132
0	6539	49890	131
0	6545	49920	132
0	6549	49984	133
0	6551	50048	134
0	6552	50073	133
0	6558	50112	134
0	6561	50125	133
0	6568	50170	132
0	6573	50174	131
0	6579	50176	132
0	6583	50240	133
0	6584	50273	132
0	6592	50304	133
0	6593	50330	132
0	6601	50368	133
0	6602	50391	132
0	6610	50432	133
0	6613	50459	132
0	6619	50496	133
0	6620	50513	132
0	6625	50546	131
0	6631	50560	132
0	6632	50567	131
0	6644	50624	132
0	6645	50673	131
0	6652	50680	130
0	6658	50688	131
0	6663	50748	130
0	6669	50752	131
0	6671	50816	132
0	6674	50861	131
0	6679	50869	130
0	6685	50880	131
0	6686	50904	130
0	6692	50944	131
0	6693	50987	130
0	6701	51008	131
0	6708	51072	132
0	6710	51082	131
0	6722	51115	130
0	6730	51136	131
0	6733	51157	130
0	6734	51157	129
0	6745	51199	128
0	6751	51200	129
0	6753	51264	130
0	6758	51327	129
0	6764	51328	130
0	6766	51392	131
0	6767	51447	130
0	6773	51456	131
0	6774	51478	130
0	6778	51499	129
0	6783	51520	130
0	6788	51584	131
0	6792	51643	130
0	6797	51648	131
0	6798	51658	130
0	6802	51664	129
0	6806	51685	128
0	6814	51712	129
0	6815	51764	128
0	6820	51776	129
0	6822	51840	130
0	6827	51904	131
0	6828	51919	130
0	6832	51947	129
0	6840	51968	130
0	6844	51990	129
0	6848	52012	128
0	6856	52032	129
0	6858	52096	130
0	6859	52099	129
0	6867	52160	130
0	6868	52188	129
0	6876	52224	130
0	6881	52288	131
0	6886	52352	132
0	6887	52389	131
0	6892	52416	132
0	6893	52421	131
0	6897	52461	130
0	6902	52480	131
0	6906	52514	130
0	6910	52516	129
0	6919	52544	130
0	6921	52608	131
0	6929	52672	132
0	6933	52683	131
0	6941	52736	132
0	6948	52786	131
0	6952	52789	130
0	6956	52792	129
0	6966	52800	128
0	6970	52800	129
0	6972	52806	128
0	6982	52864	129
0	6984	52928	130
0	6985	52968	129
0	6992	52980	128
0	6997	52992	129
0	6998	53007	128
0	7003	53056	129
0	7004	53057	128
0	7009	53120	129
0	7020	53184	130
0	7022	53248	131
0	7023	53252	130
0	7033	53293	129
0	7037	53311	128
0	7042	53312	129
0	7050	53376	130
0	7051	53412	129
0	7056	53440	130
0	7057	53467	129
0	7065	53504	130
0	7069	53514	129
0	7073	53535	128
0	7078	53568	129
0	7079	53630	128
0	7084	53632	129
0	7091	53687	128
0	7096	53696	129
0	7103	53731	128
0	7107	53750	127
0	7112	53760	128
0	7113	53777	127
0	7127	53824	128
0	7131	53851	127
0	7135	53855	126
0	7136	53855	125
0	7147	53888	126
0	7152	53952	127
0	7163	54000	128
0	7171	54016	129
0	7172	54041	128
0	7180	54080	129
0	7182	54115	128
0	7195	54144	129
0	7197	54208	130
0	7198	54225	129
0	7202	54233	128
0	7210	54272	129
0	7215	54336	130
0	7216	54337	129
0	7234	54400	130
0	7236	54464	131
0	7237	54472	130
0	7245	54528	131
0	7250	54572	130
0	7255	54589	129
0	7261	54592	130
0	7262	54629	129
0	7267	54650	128
0	7273	54656	129
0	7274	54676	128
0	7278	54712	127
0	7283	54720	128
0	7284	54743	127
0	7288	54747	126
0	7296	54784	127
0	7297	54794	126
0	7301	54807	125
0	7306	54848	126
0	7307	54859	125
0	7312	54912	126
0	7313	54955	125
0	7321	54976	126
0	7329	55040	127
0	7330	55082	126
0	7337	55096	125
0	7342	55104	126
0	7343	55110	125
0	7351	55168	126
0	7352	55183	125
0	7360	55232	126
0	7361	55261	125
0	7365	55263	124
0	7370	55296	125
0	7375	55360	126
0	7376	55372	125
0	7386	55396	124
0	7393	55415	123
0	7398	55424	124
0	7406	55488	125
0	7407	55492	124
0	7414	55504	123
0	7426	55552	124
0	7429	55576	123
0	7433	55597	122
0	7437	55599	121
0	7445	55616	122
0	7450	55680	123
0	7451	55719	122
0	7455	55740	121
0	7460	55744	122
0	7464	55780	121
0	7469	55785	120
0	7474	55808	121
0	7475	55865	120
0	7483	55872	121
0	7493	55936	122
0	7498	56000	123
0	7502	56028	122
0	7506	56042	121
0	7517	56064	122
0	7522	56128	123
0	7534	56177	122
0	7540	56192	123
0	7544	56256	124
0	7549	56310	123
0	7555	56320	124
0	7556	56339	123
0	7566	56384	124
0	7568	56448	125
0	7569	56465	124
0	7577	56512	125
0	7578	56552	124
0	7584	56576	125
0	7585	56610	124
0	7591	56640	125
0	7593	56704	126
0	7596	56736	125
0	7602	56768	126
0	7603	56783	125
0	7611	56832	126
0	7612	56866	125
0	7622	56896	126
0	7623	56919	125
0	7629	56960	126
0	7638	57024	127
0	7646	57088	128
0	7647	57147	127
0	7653	57152	128
0	7654	57161	127
0	7662	57216	128
0	7663	57227	127
0	7668	57238	126
0	7675	57269	125
0	7683	57280	126
0	7687	57344	127
0	7690	57378	126
0	7695	57393	125
0	7700	57396	124
0	7705	57401	123
0	7710	57408	124
0	7719	57472	125
0	7722	57501	124
0	7730	57536	125
0	7734	57600	126
0	7736	57664	127
0	7737	57686	126
0	7742	57693	125
0	7748	57728	126